Generated with Brickcode 

     657 atoms 
      13 atom types 
 
    0.000000    13.470400 xlo xhi 
    0.000000    12.419042 ylo yhi 
    0.000000    47.987367 zlo zhi 
    0.000000     0.000000     0.000000 xy xz yz 
 
Masses 
 
1 40.08  #Ca_1  
2 40.08  #Ca_2  
3 28.10  #Si_1 
4 28.10  #Si_2 
5 15.79  #O_Ca 
6 15.79  #O_Si 
7 15.79  #O 
8 15.79  #Ow 
9 15.79  #Oh 
10 1.00  #Hw 
11 1.00  #H 
12 65.38  #Zn 
13 54.94  #Mn 
14 22.99  #Na 
15 35.45  #Cl 
 
Atoms 
 
       1        1        0     4.070721     2.594392     8.116337
       2        1        0     2.117152     5.717781     8.118016
       3        1        0     0.703196     2.594355    42.110020
       4        1        0    10.805921     2.594392     8.116337
       5        1        0     4.152799     2.613021    40.136968
       6        1        0     2.035073     5.699153    40.138647
       7        1        0     8.852352     5.717781     8.118016
       8        1        0     6.734626     8.803913     8.116337
       9        1        0     7.438396     2.594355    42.110020
      10        1        0     0.081504     8.822542    40.136968
      11        1        0     4.781057    11.927302     8.118016
      12        1        0     0.785274     2.612984     6.143284
      13        1        0     5.484827     5.717744    42.111699
      14        1        0     3.367101     8.803876    42.110020
      15        1        0     1.413532    11.927265    42.111699
      16        1        0    10.887999     2.613021    40.136968
      17        1        0     8.770273     5.699153    40.138647
      18        1        0    13.469826     8.803913     8.116337
      19        1        0     6.816704     8.822542    40.136968
      20        1        0     4.698978    11.908674    40.138647
      21        1        0    11.516257    11.927302     8.118016
      22        1        0     7.520474     2.612984     6.143284
      23        1        0     5.402748     5.699116     6.144963
      24        1        0    12.220027     5.717744    42.111699
      25        1        0    10.102301     8.803876    42.110020
      26        1        0     3.449179     8.822505     6.143284
      27        1        0     1.331453    11.908637     6.144963
      28        1        0     8.148732    11.927265    42.111699
      29        1        0    11.434178    11.908674    40.138647
      30        1        0    12.137948     5.699116     6.144963
      31        1        0    10.184379     8.822505     6.143284
      32        1        0     8.066653    11.908637     6.144963
      33        2        0     7.990852     0.847705    36.421896
      34        2        0     6.077745     6.128231    34.182908
      35        2        0     3.919557     7.057226    36.421896
      36        2        0     4.623327     0.847668     2.428212
      37        2        0     4.428473     1.094250    45.279456
      38        2        0     2.402320     3.739597     2.990485
      39        2        0     0.552032     7.057189     2.428212
      40        2        0    12.617499     3.704097    11.803980
      41        2        0    12.732105     1.717049    12.223791
      42        2        0     8.546204     9.913618    11.803980
      43        2        0     6.474810    10.577765    36.043450
      44        2        0     7.178580     4.368207     2.049767
      45        2        0     5.066225     9.949118     2.990485
      46        2        0    13.210010    10.577765    36.043450
      47        3        0     0.596965     2.817934     9.226042
      48        3        0     0.949458     2.352221    39.031744
      49        3        0     7.332165     2.817934     9.226042
      50        3        0     7.684658     2.352221    39.031744
      51        3        0     5.296517     5.922695    39.028944
      52        3        0     5.649011     5.456981     9.223243
      53        3        0     3.260870     9.027455     9.226042
      54        3        0     3.964640     2.817897    43.219725
      55        3        0     3.613363     8.561742    39.031744
      56        3        0     1.225222    12.132216    39.028944
      57        3        0     1.577716    11.666502     9.223243
      58        3        0     4.317133     2.352184     5.038060
      59        3        0     1.928992     5.922658     5.035260
      60        3        0     2.281486     5.456944    43.216926
      61        3        0     0.245838     8.561705     5.038060
      62        3        0    12.031717     5.922695    39.028944
      63        3        0    12.384211     5.456981     9.223243
      64        3        0     9.996070     9.027455     9.226042
      65        3        0    10.699840     2.817897    43.219725
      66        3        0    10.348563     8.561742    39.031744
      67        3        0     7.960422    12.132216    39.028944
      68        3        0     8.312916    11.666502     9.223243
      69        3        0    11.052333     2.352184     5.038060
      70        3        0     8.664192     5.922658     5.035260
      71        3        0     9.016686     5.456944    43.216926
      72        3        0     6.628545     9.027418    43.219725
      73        3        0     6.981038     8.561705     5.038060
      74        3        0     4.592897    12.132179     5.035260
      75        3        0     4.945391    11.666465    43.216926
      76        3        0    13.363745     9.027418    43.219725
      77        3        0    11.328097    12.132179     5.035260
      78        3        0    11.680591    11.666465    43.216926
      79        4        0     2.479759     1.507726    11.213155
      80        4        0     9.214959     1.507726    11.213155
      81        4        0     5.143664     7.717247    11.213155
      82        4        0     1.776139     7.717210    45.206838
      83        4        0     9.843217    10.822007    37.041832
      84        4        0    13.210892    10.821970     3.048148
      85        5        0     3.949051     0.161502    39.920625
      86        5        0     3.795935     0.291281     8.332402
      87        5        0     1.913404     3.266262     8.334360
      88        5        0     1.760288     3.396041    39.922584
      89        5        0     0.581526     0.161465     5.926941
      90        5        0     0.428410     0.291244    42.326085
      91        5        0    10.684251     0.161502    39.920625
      92        5        0    10.531135     0.291281     8.332402
      93        5        0     6.260280     1.967851     8.340797
      94        5        0     8.648604     3.266262     8.334360
      95        5        0     6.467745     1.825033    39.908590
      96        5        0     8.495488     3.396041    39.922584
      97        5        0     4.224632     5.072612    39.914188
      98        5        0     6.612956     6.371023    39.920625
      99        5        0     6.459840     6.500802     8.332402
     100        5        0     4.432097     4.929793     8.346394
     101        5        0     2.188985     8.177372     8.340797
     102        5        0     4.577309     9.475783     8.334360
     103        5        0     7.316726     0.161465     5.926941
     104        5        0     7.163610     0.291244    42.326085
     105        5        0     2.892755     1.967814    42.334480
     106        5        0     5.281079     3.266225    42.328043
     107        5        0     2.396450     8.034554    39.908590
     108        5        0     4.424193     9.605562    39.922584
     109        5        0     0.153337    11.282133    39.914188
     110        5        0     0.360802    11.139314     8.346394
     111        5        0     3.100220     1.824996     5.914906
     112        5        0     5.127963     3.396004     5.928900
     113        5        0     0.857107     5.072575     5.920504
     114        5        0     3.245431     6.370986     5.926941
     115        5        0     3.092315     6.500765    42.326085
     116        5        0     1.064572     4.929756    42.340077
     117        5        0     1.209784     9.475746    42.328043
     118        5        0     1.056668     9.605525     5.928900
     119        5        0    12.995480     1.967851     8.340797
     120        5        0    13.202945     1.825033    39.908590
     121        5        0    10.959832     5.072612    39.914188
     122        5        0    13.348156     6.371023    39.920625
     123        5        0    13.195040     6.500802     8.332402
     124        5        0    11.167297     4.929793     8.346394
     125        5        0     8.924185     8.177372     8.340797
     126        5        0    11.312509     9.475783     8.334360
     127        5        0     9.627955     1.967814    42.334480
     128        5        0    12.016279     3.266225    42.328043
     129        5        0     9.131650     8.034554    39.908590
     130        5        0    11.159393     9.605562    39.922584
     131        5        0     6.888537    11.282133    39.914188
     132        5        0     7.096002    11.139314     8.346394
     133        5        0     9.835420     1.824996     5.914906
     134        5        0    11.863163     3.396004     5.928900
     135        5        0     7.592307     5.072575     5.920504
     136        5        0     9.980631     6.370986     5.926941
     137        5        0     9.827515     6.500765    42.326085
     138        5        0     7.799772     4.929756    42.340077
     139        5        0     5.556660     8.177335    42.334480
     140        5        0     7.944984     9.475746    42.328043
     141        5        0     5.764125     8.034517     5.914906
     142        5        0     7.791868     9.605525     5.928900
     143        5        0     3.521012    11.282096     5.920504
     144        5        0     3.728477    11.139277    42.340077
     145        5        0    12.291860     8.177335    42.334480
     146        5        0    12.499325     8.034517     5.914906
     147        5        0    10.256212    11.282096     5.920504
     148        5        0    10.463677    11.139277    42.340077
     149        6        0     2.485859     0.030481    10.632973
     150        6        0     1.115788     2.192015    10.621219
     151        6        0     1.819122     1.129566    38.444843
     152        6        0     9.221059     0.030481    10.632973
     153        6        0     6.518674     4.234327     9.810141
     154        6        0     7.850988     2.192015    10.621219
     155        6        0     8.554322     1.129566    38.444843
     156        6        0     5.149764     6.240002    10.632973
     157        6        0     2.447379    10.443848     9.810141
     158        6        0     3.779693     8.401536    10.621219
     159        6        0     3.151149     4.234290    43.803824
     160        6        0     4.483027     7.339087    38.444843
     161        6        0     5.186797     1.129529     4.451159
     162        6        0     1.782239     6.239965    44.626656
     163        6        0     0.412168     8.401499    44.614902
     164        6        0     1.115502     7.339050     4.451159
     165        6        0    13.253874     4.234327     9.810141
     166        6        0     9.182579    10.443848     9.810141
     167        6        0     9.886349     4.234290    43.803824
     168        6        0    11.218227     7.339087    38.444843
     169        6        0     9.849317     9.344763    37.622011
     170        6        0     8.479246    11.506297    37.633768
     171        6        0    11.921997     1.129529     4.451159
     172        6        0     5.815054    10.443811    43.803824
     173        6        0     7.850702     7.339050     4.451159
     174        6        0    12.550254    10.443811    43.803824
     175        6        0    13.216992     9.344726     3.628327
     176        6        0    11.846921    11.506260     3.640084
     177        7        0     3.850515     2.365260    10.836443
     178        7        0     0.450212     3.135242    37.622011
     179        7        0     9.161344     1.508347    12.776816
     180        7        0    10.585715     2.365260    10.836443
     181        7        0     5.815341     5.296776    37.633768
     182        7        0     5.090049     7.717868    12.776816
     183        7        0     6.514420     8.574781    10.836443
     184        7        0     5.853534     0.030444    44.626656
     185        7        0     4.483463     2.191978    44.614902
     186        7        0     2.447816     5.296739     3.640084
     187        7        0     1.722524     7.717831    46.770499
     188        7        0     3.146895     8.574744    44.830126
     189        7        0     1.111248    11.679505     3.424859
     190        7        0    12.550541     5.296776    37.633768
     191        7        0    11.884964     6.240002    10.632973
     192        7        0    11.218663     2.191978    44.614902
     193        7        0    11.213973    11.679542    37.418543
     194        7        0     8.517439     6.239965    44.626656
     195        7        0     7.147368     8.401499    44.614902
     196        7        0     6.481792     9.344726     3.628327
     197        7        0     5.111721    11.506260     3.640084
     198        8        0     2.762190     1.627570    35.697591
     199        8        0     4.359997     2.719204    37.757190
     200        8        0     1.744392     3.179909    35.697591
     201        8        0     0.482990     2.365223    44.830126
     202        8        0     5.344994     1.269281    34.217052
     203        8        0     4.104641     4.844722    34.037933
     204        8        0     7.461742     4.732331    12.557394
     205        8        0     3.324192     8.831236    34.133090
     206        8        0     1.977469     1.269244     0.223368
     207        8        0     0.992472     2.719167     3.763506
     208        8        0     0.033346    11.054243    34.037933
     209        8        0     4.478773    11.679542    37.418543
     210        8        0     3.010165     4.174016     0.139406
     211        8        0     4.094217     4.732294    46.551077
     212        8        0    10.059392     8.831236    34.133090
     213        8        0    13.249620     8.574781    10.836443
     214        8        0     8.712669     1.269244     0.223368
     215        8        0    12.529019     1.508310    46.770499
     216        8        0     6.768546    11.054243    34.037933
     217        8        0    10.125647    10.941852    12.557394
     218        8        0    11.723454    12.033485    10.497794
     219        8        0     8.457724     7.717831    46.770499
     220        8        0    10.493372     4.613070     1.484484
     221        8        0    10.829417     4.732294    46.551077
     222        8        0    10.391577     8.928688     3.763506
     223        8        0    13.427067     8.831199     0.139406
     224        8        0    10.358776     9.031103     0.223368
     225        8        0    10.136221    11.054206     0.044249
     226        8        0     0.000000     0.000000    16.493684
     227        8        0     3.367600     0.000000    16.493684
     228        8        0     6.735200     0.000000    16.493684
     229        8        0    10.102800     0.000000    16.493684
     230        8        0     0.000000     2.483808    16.493684
     231        8        0     3.367600     2.483808    16.493684
     232        8        0     6.735200     2.483808    16.493684
     233        8        0    10.102800     2.483808    16.493684
     234        8        0     0.000000     4.967617    16.493684
     235        8        0     3.367600     4.967617    16.493684
     236        8        0     6.735200     4.967617    16.493684
     237        8        0    10.102800     4.967617    16.493684
     238        8        0     0.000000     7.451425    16.493684
     239        8        0     3.367600     7.451425    16.493684
     240        8        0     6.735200     7.451425    16.493684
     241        8        0    10.102800     7.451425    16.493684
     242        8        0     0.000000     9.935234    16.493684
     243        8        0     3.367600     9.935234    16.493684
     244        8        0     6.735200     9.935234    16.493684
     245        8        0     0.000000     0.000000    18.993684
     246        8        0     6.735200     0.000000    18.993684
     247        8        0    10.102800     0.000000    18.993684
     248        8        0     0.000000     2.483808    18.993684
     249        8        0     3.367600     2.483808    18.993684
     250        8        0     6.735200     2.483808    18.993684
     251        8        0    10.102800     2.483808    18.993684
     252        8        0     0.000000     4.967617    18.993684
     253        8        0     3.367600     4.967617    18.993684
     254        8        0     6.735200     4.967617    18.993684
     255        8        0    10.102800     4.967617    18.993684
     256        8        0     0.000000     7.451425    18.993684
     257        8        0     3.367600     7.451425    18.993684
     258        8        0     6.735200     7.451425    18.993684
     259        8        0    10.102800     7.451425    18.993684
     260        8        0     0.000000     9.935234    18.993684
     261        8        0     3.367600     9.935234    18.993684
     262        8        0    10.102800     9.935234    18.993684
     263        8        0     0.000000     0.000000    21.493684
     264        8        0     3.367600     0.000000    21.493684
     265        8        0     6.735200     0.000000    21.493684
     266        8        0    10.102800     0.000000    21.493684
     267        8        0     0.000000     2.483808    21.493684
     268        8        0     3.367600     2.483808    21.493684
     269        8        0     6.735200     2.483808    21.493684
     270        8        0    10.102800     2.483808    21.493684
     271        8        0     0.000000     4.967617    21.493684
     272        8        0     3.367600     4.967617    21.493684
     273        8        0     6.735200     4.967617    21.493684
     274        8        0    10.102800     4.967617    21.493684
     275        8        0     0.000000     7.451425    21.493684
     276        8        0     3.367600     7.451425    21.493684
     277        8        0    10.102800     7.451425    21.493684
     278        8        0     0.000000     9.935234    21.493684
     279        8        0     3.367600     9.935234    21.493684
     280        8        0     6.735200     9.935234    21.493684
     281        8        0    10.102800     9.935234    21.493684
     282        8        0     0.000000     0.000000    23.993684
     283        8        0     6.735200     0.000000    23.993684
     284        8        0    10.102800     0.000000    23.993684
     285        8        0     0.000000     2.483808    23.993684
     286        8        0     3.367600     2.483808    23.993684
     287        8        0     6.735200     2.483808    23.993684
     288        8        0    10.102800     2.483808    23.993684
     289        8        0     0.000000     4.967617    23.993684
     290        8        0     3.367600     4.967617    23.993684
     291        8        0     6.735200     4.967617    23.993684
     292        8        0    10.102800     4.967617    23.993684
     293        8        0     0.000000     7.451425    23.993684
     294        8        0     3.367600     7.451425    23.993684
     295        8        0     6.735200     7.451425    23.993684
     296        8        0    10.102800     7.451425    23.993684
     297        8        0     0.000000     9.935234    23.993684
     298        8        0     3.367600     9.935234    23.993684
     299        8        0     6.735200     9.935234    23.993684
     300        8        0    10.102800     9.935234    23.993684
     301        8        0     0.000000     0.000000    26.493684
     302        8        0     6.735200     0.000000    26.493684
     303        8        0     0.000000     2.483808    26.493684
     304        8        0     3.367600     2.483808    26.493684
     305        8        0     6.735200     2.483808    26.493684
     306        8        0    10.102800     2.483808    26.493684
     307        8        0     0.000000     4.967617    26.493684
     308        8        0     3.367600     4.967617    26.493684
     309        8        0    10.102800     4.967617    26.493684
     310        8        0     0.000000     7.451425    26.493684
     311        8        0     3.367600     7.451425    26.493684
     312        8        0     6.735200     7.451425    26.493684
     313        8        0    10.102800     7.451425    26.493684
     314        8        0     0.000000     9.935234    26.493684
     315        8        0     3.367600     9.935234    26.493684
     316        8        0     6.735200     9.935234    26.493684
     317        8        0    10.102800     9.935234    26.493684
     318        8        0     0.000000     0.000000    28.993684
     319        8        0     3.367600     0.000000    28.993684
     320        8        0     6.735200     0.000000    28.993684
     321        8        0    10.102800     0.000000    28.993684
     322        8        0     0.000000     2.483808    28.993684
     323        8        0     6.735200     2.483808    28.993684
     324        8        0    10.102800     2.483808    28.993684
     325        8        0     0.000000     4.967617    28.993684
     326        8        0     3.367600     4.967617    28.993684
     327        8        0     6.735200     4.967617    28.993684
     328        8        0    10.102800     4.967617    28.993684
     329        8        0     0.000000     7.451425    28.993684
     330        8        0     3.367600     7.451425    28.993684
     331        8        0     6.735200     7.451425    28.993684
     332        8        0    10.102800     7.451425    28.993684
     333        8        0     0.000000     9.935234    28.993684
     334        8        0     6.735200     9.935234    28.993684
     335        8        0    10.102800     9.935234    28.993684
     336        9        0     2.426144     1.508347    12.776816
     337        9        0     7.185412     3.135242    37.622011
     338        9        0     1.958554     7.373875    35.419172
     339        9        0     6.129865     1.627533     1.703907
     340        9        0     0.288702     8.928725    37.757190
     341        9        0     3.114117     9.344763    37.622011
     342        9        0     1.744046    11.506297    37.633768
     343        9        0     3.817887     3.135205     3.628327
     344        9        0     5.692024     5.823927    44.491477
     345        9        0     1.620729    12.033448    44.491477
     346        9        0    12.765049     1.164354    35.419172
     347        9        0    10.514893     8.401536    10.621219
     348        9        0    12.588734     0.030444    44.626656
     349        9        0     9.789602    10.822628    35.478168
     350        9        0     6.099882    12.203731    12.515685
     351        9        0    10.553087     3.135205     3.628327
     352        9        0     9.183016     5.296739     3.640084
     353        9        0    13.157277    10.822591     1.484484
     354       10        0     3.347912     0.989936    35.197238
     355       10        0     2.565702     2.355348    35.040527
     356       10        0     4.808387     3.530511    38.132326
     357       10        0     4.683483     2.668708    36.812305
     358       10        0     1.979761     2.318530    36.147732
     359       10        0     1.027052     2.933923    35.045736
     360       10        0     0.343210     2.881829    43.985389
     361       10        0     1.086491     1.612716    44.566462
     362       10        0     5.969099     1.212971    33.437743
     363       10        0     4.432915     1.279502    33.807164
     364       10        0     4.326157     4.598911    34.981599
     365       10        0     3.762890     3.997105    33.632036
     366       10        0     6.880806     4.160539    11.978111
     367       10        0     8.364800     4.685238    12.130466
     368       10        0     2.632849     9.118904    34.795880
     369       10        0     4.099447     9.440566    34.299510
     370       10        0     1.649794     0.670158     0.953933
     371       10        0     1.567567     0.896295    -0.609032
     372       10        0     1.036518     1.897693     3.194964
     373       10        0     1.295288     2.415071     4.666738
     374       10        0    -0.128661    12.014574    34.264912
     375       10        0    -0.501466    10.544092    34.711522
     376       10        0     4.388129    12.342791    38.161432
     377       10        0     5.179602    11.041207    37.736922
     378       10        0     3.589844     3.727632     0.821105
     379       10        0     2.895060     5.106851     0.480828
     380       10        0     4.411023     4.008185    45.938459
     381       10        0     3.856560     5.489170    45.942261
     382       10        0    10.705286     9.211347    33.471020
     383       10        0    10.629304     8.308733    34.767275
     384       10        0    13.175783     9.505107    11.195667
     385       10        0    13.375245     8.002665    11.646937
     386       10        0     9.043844     1.673595    -0.629171
     387       10        0     7.845783     1.734957     0.401190
     388       10        0    13.318675     2.098860    46.604087
     389       10        0    11.759452     2.139896    46.864661
     390       10        0     6.257483    10.224324    33.814214
     391       10        0     7.660548    10.723564    34.346124
     392       10        0    10.039521    11.928689    12.694264
     393       10        0    10.008182    10.551246    13.470427
     394       10        0    12.696185    11.805793    10.453636
     395       10        0    11.695115    12.923997    10.951871
     396       10        0     8.586985     7.652294    45.781057
     397       10        0     7.978961     6.875150    47.016821
     398       10        0    10.147041     5.365998     0.924881
     399       10        0    10.503259     3.826339     0.867268
     400       10        0    11.157823     5.445292    45.931575
     401       10        0     9.849218     4.909459    46.639527
     402       10        0     9.604363     9.481061     4.037693
     403       10        0    11.111286     9.596078     3.572167
     404       10        0    13.787715     9.128306    -0.744709
     405       10        0    12.821654     8.066509    -0.081330
     406       10        0     9.985224     8.569519    -0.581243
     407       10        0    11.148070     9.538226    -0.122814
     408       10        0     9.181720    11.275723    -0.155400
     409       10        0    10.614607    11.205639    -0.820745
     410       10        0     0.519297    -0.645566    16.014301
     411       10        0    -0.420921     0.523270    15.811594
     412       10        0     3.289648    -0.609293    15.759574
     413       10        0     3.477312     0.857535    16.082796
     414       10        0     7.690169    -0.014906    16.557270
     415       10        0     6.557648     0.002771    15.553099
     416       10        0    10.081165    -0.026397    15.537092
     417       10        0    10.695277     0.722892    16.700152
     418       10        0     0.398399     2.847659    17.284331
     419       10        0     0.465465     2.908909    15.773362
     420       10        0     3.052819     2.692774    17.373160
     421       10        0     2.737032     2.902407    15.907687
     422       10        0     6.340654     2.498532    17.365663
     423       10        0     5.990368     2.511603    15.893113
     424       10        0    10.977161     2.094904    16.515552
     425       10        0     9.903222     2.572578    15.561739
     426       10        0    -0.042972     4.990402    17.449647
     427       10        0    -0.806920     5.395474    16.207240
     428       10        0     3.020026     4.982432    17.385426
     429       10        0     2.592070     5.000673    15.933600
     430       10        0     6.086629     5.560961    16.872537
     431       10        0     6.626966     5.066634    15.547791
     432       10        0    10.290092     4.710039    17.396350
     433       10        0    10.569850     4.325294    15.959345
     434       10        0     0.308793     6.631498    16.108199
     435       10        0    -0.208850     8.005977    15.741961
     436       10        0     2.621314     7.950483    16.161675
     437       10        0     3.821650     7.147792    15.707632
     438       10        0     7.262591     7.309141    17.279715
     439       10        0     7.337877     7.288829    15.768029
     440       10        0     9.399527     7.191252    15.898748
     441       10        0    10.819090     7.716414    15.916673
     442       10        0     0.682396     9.948436    15.822571
     443       10        0    -0.820473     9.919360    16.000933
     444       10        0     2.907097     9.717118    17.303989
     445       10        0     2.773913     9.654035    15.797484
     446       10        0     6.654539     9.120939    15.997044
     447       10        0     6.802792    10.617595    15.825817