LAMMPS data file. CGCMM style. atom_style full generated by VMD/TopoTools v1.8 on Wed Oct 29 12:33:38 CET 2025
 657 atoms
 295 bonds
 140 angles
 0 dihedrals
 0 impropers
 13 atom types
 2 bond types
 1 angle types
 0 dihedral types
 0 improper types
 -0.291920 13.178480  xlo xhi
 -0.214121 12.204921  ylo yhi
 -0.895644 47.091722  zlo zhi

# Pair Coeffs
#
# 1  Ca1
# 2  Ca2
# 3  Cl
# 4  H
# 5  Hw
# 6  Na
# 7  O
# 8  Oca
# 9  Oh
# 10  Osi
# 11  Ow
# 12  Si1
# 13  Si2

# Bond Coeffs
#
# 1  H-Oh
# 2  Hw-Ow

# Angle Coeffs
#
# 1  Hw-Ow-Hw
# 2  Ow-Hw-Ow

 Masses

 1 40.779991 # Ca1
 2 40.077999 # Ca2
 3 35.450001 # Cl
 4 1.007940 # H
 5 1.007940 # Hw
 6 22.990000 # Na
 7 15.999400 # O
 8 15.999400 # Oca
 9 15.999400 # Oh
 10 15.999400 # Osi
 11 15.999400 # Ow
 12 28.085501 # Si1
 13 28.085501 # Si2

 Atoms # full

1 1 1 1.360000 4.070721 2.594392 8.116337 # Ca1 
2 1 1 1.360000 2.117152 5.717781 8.118016 # Ca1 
3 1 1 1.360000 0.703196 2.594355 42.110020 # Ca1 
4 1 1 1.360000 10.805921 2.594392 8.116337 # Ca1 
5 1 1 1.360000 4.152799 2.613021 40.136967 # Ca1 
6 1 1 1.360000 2.035073 5.699153 40.138645 # Ca1 
7 1 1 1.360000 8.852352 5.717781 8.118016 # Ca1 
8 1 1 1.360000 6.734626 8.803913 8.116337 # Ca1 
9 1 1 1.360000 7.438396 2.594355 42.110020 # Ca1 
10 1 1 1.360000 0.081504 8.822542 40.136967 # Ca1 
11 1 1 1.360000 4.781057 11.927302 8.118016 # Ca1 
12 1 1 1.360000 0.785274 2.612984 6.143284 # Ca1 
13 1 1 1.360000 5.484827 5.717744 42.111698 # Ca1 
14 1 1 1.360000 3.367101 8.803876 42.110020 # Ca1 
15 1 1 1.360000 1.413532 11.927265 42.111698 # Ca1 
16 1 1 1.360000 10.887999 2.613021 40.136967 # Ca1 
17 1 1 1.360000 8.770273 5.699153 40.138645 # Ca1 
18 1 1 1.360000 13.469826 8.803913 8.116337 # Ca1 
19 1 1 1.360000 6.816704 8.822542 40.136967 # Ca1 
20 1 1 1.360000 4.698978 11.908674 40.138645 # Ca1 
21 1 1 1.360000 11.516257 11.927302 8.118016 # Ca1 
22 1 1 1.360000 7.520474 2.612984 6.143284 # Ca1 
23 1 1 1.360000 5.402748 5.699116 6.144963 # Ca1 
24 1 1 1.360000 12.220027 5.717744 42.111698 # Ca1 
25 1 1 1.360000 10.102301 8.803876 42.110020 # Ca1 
26 1 1 1.360000 3.449179 8.822505 6.143284 # Ca1 
27 1 1 1.360000 1.331453 11.908637 6.144963 # Ca1 
28 1 1 1.360000 8.148732 11.927265 42.111698 # Ca1 
29 1 1 1.360000 11.434178 11.908674 40.138645 # Ca1 
30 1 1 1.360000 12.137948 5.699116 6.144963 # Ca1 
31 1 1 1.360000 10.184379 8.822505 6.143284 # Ca1 
32 1 1 1.360000 8.066653 11.908637 6.144963 # Ca1 
33 1 2 1.050000 7.990852 0.847705 36.421898 # Ca2 
34 1 2 1.050000 6.077745 6.128231 34.182907 # Ca2 
35 1 2 1.050000 3.919557 7.057226 36.421898 # Ca2 
36 1 2 1.050000 4.623327 0.847668 2.428212 # Ca2 
37 1 2 1.050000 4.428473 1.094250 45.279457 # Ca2 
38 1 2 1.050000 2.402320 3.739597 2.990485 # Ca2 
39 1 2 1.050000 0.552032 7.057189 2.428212 # Ca2 
40 1 2 1.050000 12.617499 3.704097 11.803980 # Ca2 
41 1 2 1.050000 12.732105 1.717049 12.223791 # Ca2 
42 1 2 1.050000 8.546204 9.913618 11.803980 # Ca2 
43 1 2 1.050000 6.474810 10.577765 36.043449 # Ca2 
44 1 2 1.050000 7.178580 4.368207 2.049767 # Ca2 
45 1 2 1.050000 5.066225 9.949118 2.990485 # Ca2 
46 1 2 1.050000 13.210010 10.577765 36.043449 # Ca2 
47 1 12 2.100000 0.596965 2.817934 9.226042 # Si1 
48 1 12 2.100000 0.949458 2.352221 39.031742 # Si1 
49 1 12 2.100000 7.332165 2.817934 9.226042 # Si1 
50 1 12 2.100000 7.684658 2.352221 39.031742 # Si1 
51 1 12 2.100000 5.296517 5.922695 39.028942 # Si1 
52 1 12 2.100000 5.649011 5.456981 9.223243 # Si1 
53 1 12 2.100000 3.260870 9.027455 9.226042 # Si1 
54 1 12 2.100000 3.964640 2.817897 43.219727 # Si1 
55 1 12 2.100000 3.613363 8.561742 39.031742 # Si1 
56 1 12 2.100000 1.225222 12.132216 39.028942 # Si1 
57 1 12 2.100000 1.577716 11.666502 9.223243 # Si1 
58 1 12 2.100000 4.317133 2.352184 5.038060 # Si1 
59 1 12 2.100000 1.928992 5.922658 5.035260 # Si1 
60 1 12 2.100000 2.281486 5.456944 43.216927 # Si1 
61 1 12 2.100000 0.245838 8.561705 5.038060 # Si1 
62 1 12 2.100000 12.031717 5.922695 39.028942 # Si1 
63 1 12 2.100000 12.384211 5.456981 9.223243 # Si1 
64 1 12 2.100000 9.996070 9.027455 9.226042 # Si1 
65 1 12 2.100000 10.699840 2.817897 43.219727 # Si1 
66 1 12 2.100000 10.348563 8.561742 39.031742 # Si1 
67 1 12 2.100000 7.960422 12.132216 39.028942 # Si1 
68 1 12 2.100000 8.312916 11.666502 9.223243 # Si1 
69 1 12 2.100000 11.052333 2.352184 5.038060 # Si1 
70 1 12 2.100000 8.664192 5.922658 5.035260 # Si1 
71 1 12 2.100000 9.016686 5.456944 43.216927 # Si1 
72 1 12 2.100000 6.628545 9.027418 43.219727 # Si1 
73 1 12 2.100000 6.981038 8.561705 5.038060 # Si1 
74 1 12 2.100000 4.592897 12.132179 5.035260 # Si1 
75 1 12 2.100000 4.945391 11.666465 43.216927 # Si1 
76 1 12 2.100000 13.363745 9.027418 43.219727 # Si1 
77 1 12 2.100000 11.328097 12.132179 5.035260 # Si1 
78 1 12 2.100000 11.680591 11.666465 43.216927 # Si1 
79 1 13 2.100000 2.479759 1.507726 11.213155 # Si2 
80 1 13 2.100000 9.214959 1.507726 11.213155 # Si2 
81 1 13 2.100000 5.143664 7.717247 11.213155 # Si2 
82 1 13 2.100000 1.776139 7.717210 45.206837 # Si2 
83 1 13 2.100000 9.843217 10.822007 37.041832 # Si2 
84 1 13 2.100000 13.210892 10.821970 3.048148 # Si2 
85 1 8 -1.050000 3.949051 0.161502 39.920624 # Oca 
86 1 8 -1.050000 3.795935 0.291281 8.332402 # Oca 
87 1 8 -1.050000 1.913404 3.266262 8.334360 # Oca 
88 1 8 -1.050000 1.760288 3.396041 39.922585 # Oca 
89 1 8 -1.050000 0.581526 0.161465 5.926941 # Oca 
90 1 8 -1.050000 0.428410 0.291244 42.326084 # Oca 
91 1 8 -1.050000 10.684251 0.161502 39.920624 # Oca 
92 1 8 -1.050000 10.531135 0.291281 8.332402 # Oca 
93 1 8 -1.050000 6.260280 1.967851 8.340797 # Oca 
94 1 8 -1.050000 8.648604 3.266262 8.334360 # Oca 
95 1 8 -1.050000 6.467745 1.825033 39.908588 # Oca 
96 1 8 -1.050000 8.495488 3.396041 39.922585 # Oca 
97 1 8 -1.050000 4.224632 5.072612 39.914188 # Oca 
98 1 8 -1.050000 6.612956 6.371023 39.920624 # Oca 
99 1 8 -1.050000 6.459840 6.500802 8.332402 # Oca 
100 1 8 -1.050000 4.432097 4.929793 8.346394 # Oca 
101 1 8 -1.050000 2.188985 8.177372 8.340797 # Oca 
102 1 8 -1.050000 4.577309 9.475783 8.334360 # Oca 
103 1 8 -1.050000 7.316726 0.161465 5.926941 # Oca 
104 1 8 -1.050000 7.163610 0.291244 42.326084 # Oca 
105 1 8 -1.050000 2.892755 1.967814 42.334480 # Oca 
106 1 8 -1.050000 5.281079 3.266225 42.328045 # Oca 
107 1 8 -1.050000 2.396450 8.034554 39.908588 # Oca 
108 1 8 -1.050000 4.424193 9.605562 39.922585 # Oca 
109 1 8 -1.050000 0.153337 11.282133 39.914188 # Oca 
110 1 8 -1.050000 0.360802 11.139314 8.346394 # Oca 
111 1 8 -1.050000 3.100220 1.824996 5.914906 # Oca 
112 1 8 -1.050000 5.127963 3.396004 5.928900 # Oca 
113 1 8 -1.050000 0.857107 5.072575 5.920504 # Oca 
114 1 8 -1.050000 3.245431 6.370986 5.926941 # Oca 
115 1 8 -1.050000 3.092315 6.500765 42.326084 # Oca 
116 1 8 -1.050000 1.064572 4.929756 42.340076 # Oca 
117 1 8 -1.050000 1.209784 9.475746 42.328045 # Oca 
118 1 8 -1.050000 1.056668 9.605525 5.928900 # Oca 
119 1 8 -1.050000 12.995480 1.967851 8.340797 # Oca 
120 1 8 -1.050000 13.202945 1.825033 39.908588 # Oca 
121 1 8 -1.050000 10.959832 5.072612 39.914188 # Oca 
122 1 8 -1.050000 13.348156 6.371023 39.920624 # Oca 
123 1 8 -1.050000 13.195040 6.500802 8.332402 # Oca 
124 1 8 -1.050000 11.167297 4.929793 8.346394 # Oca 
125 1 8 -1.050000 8.924185 8.177372 8.340797 # Oca 
126 1 8 -1.050000 11.312509 9.475783 8.334360 # Oca 
127 1 8 -1.050000 9.627955 1.967814 42.334480 # Oca 
128 1 8 -1.050000 12.016279 3.266225 42.328045 # Oca 
129 1 8 -1.050000 9.131650 8.034554 39.908588 # Oca 
130 1 8 -1.050000 11.159393 9.605562 39.922585 # Oca 
131 1 8 -1.050000 6.888537 11.282133 39.914188 # Oca 
132 1 8 -1.050000 7.096002 11.139314 8.346394 # Oca 
133 1 8 -1.050000 9.835420 1.824996 5.914906 # Oca 
134 1 8 -1.050000 11.863163 3.396004 5.928900 # Oca 
135 1 8 -1.050000 7.592307 5.072575 5.920504 # Oca 
136 1 8 -1.050000 9.980631 6.370986 5.926941 # Oca 
137 1 8 -1.050000 9.827515 6.500765 42.326084 # Oca 
138 1 8 -1.050000 7.799772 4.929756 42.340076 # Oca 
139 1 8 -1.050000 5.556660 8.177335 42.334480 # Oca 
140 1 8 -1.050000 7.944984 9.475746 42.328045 # Oca 
141 1 8 -1.050000 5.764125 8.034517 5.914906 # Oca 
142 1 8 -1.050000 7.791868 9.605525 5.928900 # Oca 
143 1 8 -1.050000 3.521012 11.282096 5.920504 # Oca 
144 1 8 -1.050000 3.728477 11.139277 42.340076 # Oca 
145 1 8 -1.050000 12.291860 8.177335 42.334480 # Oca 
146 1 8 -1.050000 12.499325 8.034517 5.914906 # Oca 
147 1 8 -1.050000 10.256212 11.282096 5.920504 # Oca 
148 1 8 -1.050000 10.463677 11.139277 42.340076 # Oca 
149 1 10 -1.180800 2.485859 0.030481 10.632973 # Osi 
150 1 10 -1.180800 1.115788 2.192015 10.621219 # Osi 
151 1 10 -1.180800 1.819122 1.129566 38.444843 # Osi 
152 1 10 -1.180800 9.221059 0.030481 10.632973 # Osi 
153 1 10 -1.180800 6.518674 4.234327 9.810141 # Osi 
154 1 10 -1.180800 7.850988 2.192015 10.621219 # Osi 
155 1 10 -1.180800 8.554322 1.129566 38.444843 # Osi 
156 1 10 -1.180800 5.149764 6.240002 10.632973 # Osi 
157 1 10 -1.180800 2.447379 10.443848 9.810141 # Osi 
158 1 10 -1.180800 3.779693 8.401536 10.621219 # Osi 
159 1 10 -1.180800 3.151149 4.234290 43.803825 # Osi 
160 1 10 -1.180800 4.483027 7.339087 38.444843 # Osi 
161 1 10 -1.180800 5.186797 1.129529 4.451159 # Osi 
162 1 10 -1.180800 1.782239 6.239965 44.626656 # Osi 
163 1 10 -1.180800 0.412168 8.401499 44.614902 # Osi 
164 1 10 -1.180800 1.115502 7.339050 4.451159 # Osi 
165 1 10 -1.180800 13.253874 4.234327 9.810141 # Osi 
166 1 10 -1.180800 9.182579 10.443848 9.810141 # Osi 
167 1 10 -1.180800 9.886349 4.234290 43.803825 # Osi 
168 1 10 -1.180800 11.218227 7.339087 38.444843 # Osi 
169 1 10 -1.180800 9.849317 9.344763 37.622009 # Osi 
170 1 10 -1.180800 8.479246 11.506297 37.633766 # Osi 
171 1 10 -1.180800 11.921997 1.129529 4.451159 # Osi 
172 1 10 -1.180800 5.815054 10.443811 43.803825 # Osi 
173 1 10 -1.180800 7.850702 7.339050 4.451159 # Osi 
174 1 10 -1.180800 12.550254 10.443811 43.803825 # Osi 
175 1 10 -1.180800 13.216992 9.344726 3.628327 # Osi 
176 1 10 -1.180800 11.846921 11.506260 3.640084 # Osi 
177 1 7 -1.168800 3.850515 2.365260 10.836443 # O 
178 1 7 -1.168800 0.450212 3.135242 37.622009 # O 
179 1 7 -1.168800 9.161344 1.508347 12.776816 # O 
180 1 7 -1.168800 10.585715 2.365260 10.836443 # O 
181 1 7 -1.168800 5.815341 5.296776 37.633766 # O 
182 1 7 -1.168800 5.090049 7.717868 12.776816 # O 
183 1 7 -1.168800 6.514420 8.574781 10.836443 # O 
184 1 7 -1.168800 5.853534 0.030444 44.626656 # O 
185 1 7 -1.168800 4.483463 2.191978 44.614902 # O 
186 1 7 -1.168800 2.447816 5.296739 3.640084 # O 
187 1 7 -1.168800 1.722524 7.717831 46.770500 # O 
188 1 7 -1.168800 3.146895 8.574744 44.830128 # O 
189 1 7 -1.168800 1.111248 11.679505 3.424859 # O 
190 1 7 -1.168800 12.550541 5.296776 37.633766 # O 
191 1 7 -1.168800 11.884964 6.240002 10.632973 # O 
192 1 7 -1.168800 11.218663 2.191978 44.614902 # O 
193 1 7 -1.168800 11.213973 11.679542 37.418545 # O 
194 1 7 -1.168800 8.517439 6.239965 44.626656 # O 
195 1 7 -1.168800 7.147368 8.401499 44.614902 # O 
196 1 7 -1.168800 6.481792 9.344726 3.628327 # O 
197 1 7 -1.168800 5.111721 11.506260 3.640084 # O 
198 1 11 -0.820000 2.762190 1.627570 35.697590 # Ow 
199 1 11 -0.820000 4.359997 2.719204 37.757191 # Ow 
200 1 11 -0.820000 1.744392 3.179909 35.697590 # Ow 
201 1 11 -0.820000 0.482990 2.365223 44.830128 # Ow 
202 1 11 -0.820000 5.344994 1.269281 34.217052 # Ow 
203 1 11 -0.820000 4.104641 4.844722 34.037933 # Ow 
204 1 11 -0.820000 7.461742 4.732331 12.557394 # Ow 
205 1 11 -0.820000 3.324192 8.831236 34.133091 # Ow 
206 1 11 -0.820000 1.977469 1.269244 0.223368 # Ow 
207 1 11 -0.820000 0.992472 2.719167 3.763506 # Ow 
208 1 11 -0.820000 0.033346 11.054243 34.037933 # Ow 
209 1 11 -0.820000 4.478773 11.679542 37.418545 # Ow 
210 1 11 -0.820000 3.010165 4.174016 0.139406 # Ow 
211 1 11 -0.820000 4.094217 4.732294 46.551079 # Ow 
212 1 11 -0.820000 10.059392 8.831236 34.133091 # Ow 
213 1 11 -0.820000 13.249620 8.574781 10.836443 # Ow 
214 1 11 -0.820000 8.712669 1.269244 0.223368 # Ow 
215 1 11 -0.820000 12.529019 1.508310 46.770500 # Ow 
216 1 11 -0.820000 6.768546 11.054243 34.037933 # Ow 
217 1 11 -0.820000 10.125647 10.941852 12.557394 # Ow 
218 1 11 -0.820000 11.723454 12.033485 10.497794 # Ow 
219 1 11 -0.820000 8.457724 7.717831 46.770500 # Ow 
220 1 11 -0.820000 10.493372 4.613070 1.484484 # Ow 
221 1 11 -0.820000 10.829417 4.732294 46.551079 # Ow 
222 1 11 -0.820000 10.391577 8.928688 3.763506 # Ow 
223 1 11 -0.820000 13.427067 8.831199 0.139406 # Ow 
224 1 11 -0.820000 10.358776 9.031103 0.223368 # Ow 
225 1 11 -0.820000 10.136221 11.054206 0.044249 # Ow 
226 1 11 -0.820000 0.000000 0.000000 16.493685 # Ow 
227 1 11 -0.820000 3.367600 0.000000 16.493685 # Ow 
228 1 11 -0.820000 6.735200 0.000000 16.493685 # Ow 
229 1 11 -0.820000 10.102800 0.000000 16.493685 # Ow 
230 1 11 -0.820000 0.000000 2.483808 16.493685 # Ow 
231 1 11 -0.820000 3.367600 2.483808 16.493685 # Ow 
232 1 11 -0.820000 6.735200 2.483808 16.493685 # Ow 
233 1 11 -0.820000 10.102800 2.483808 16.493685 # Ow 
234 1 11 -0.820000 0.000000 4.967617 16.493685 # Ow 
235 1 11 -0.820000 3.367600 4.967617 16.493685 # Ow 
236 1 11 -0.820000 6.735200 4.967617 16.493685 # Ow 
237 1 11 -0.820000 10.102800 4.967617 16.493685 # Ow 
238 1 11 -0.820000 0.000000 7.451425 16.493685 # Ow 
239 1 11 -0.820000 3.367600 7.451425 16.493685 # Ow 
240 1 11 -0.820000 6.735200 7.451425 16.493685 # Ow 
241 1 11 -0.820000 10.102800 7.451425 16.493685 # Ow 
242 1 11 -0.820000 0.000000 9.935234 16.493685 # Ow 
243 1 11 -0.820000 3.367600 9.935234 16.493685 # Ow 
244 1 11 -0.820000 6.735200 9.935234 16.493685 # Ow 
245 1 11 -0.820000 0.000000 0.000000 18.993685 # Ow 
246 1 11 -0.820000 6.735200 0.000000 18.993685 # Ow 
247 1 11 -0.820000 10.102800 0.000000 18.993685 # Ow 
248 1 11 -0.820000 0.000000 2.483808 18.993685 # Ow 
249 1 11 -0.820000 3.367600 2.483808 18.993685 # Ow 
250 1 11 -0.820000 6.735200 2.483808 18.993685 # Ow 
251 1 11 -0.820000 10.102800 2.483808 18.993685 # Ow 
252 1 11 -0.820000 0.000000 4.967617 18.993685 # Ow 
253 1 11 -0.820000 3.367600 4.967617 18.993685 # Ow 
254 1 11 -0.820000 6.735200 4.967617 18.993685 # Ow 
255 1 11 -0.820000 10.102800 4.967617 18.993685 # Ow 
256 1 11 -0.820000 0.000000 7.451425 18.993685 # Ow 
257 1 11 -0.820000 3.367600 7.451425 18.993685 # Ow 
258 1 11 -0.820000 6.735200 7.451425 18.993685 # Ow 
259 1 11 -0.820000 10.102800 7.451425 18.993685 # Ow 
260 1 11 -0.820000 0.000000 9.935234 18.993685 # Ow 
261 1 11 -0.820000 3.367600 9.935234 18.993685 # Ow 
262 1 11 -0.820000 10.102800 9.935234 18.993685 # Ow 
263 1 11 -0.820000 0.000000 0.000000 21.493685 # Ow 
264 1 11 -0.820000 3.367600 0.000000 21.493685 # Ow 
265 1 11 -0.820000 6.735200 0.000000 21.493685 # Ow 
266 1 11 -0.820000 10.102800 0.000000 21.493685 # Ow 
267 1 11 -0.820000 0.000000 2.483808 21.493685 # Ow 
268 1 11 -0.820000 3.367600 2.483808 21.493685 # Ow 
269 1 11 -0.820000 6.735200 2.483808 21.493685 # Ow 
270 1 11 -0.820000 10.102800 2.483808 21.493685 # Ow 
271 1 11 -0.820000 0.000000 4.967617 21.493685 # Ow 
272 1 11 -0.820000 3.367600 4.967617 21.493685 # Ow 
273 1 11 -0.820000 6.735200 4.967617 21.493685 # Ow 
274 1 11 -0.820000 10.102800 4.967617 21.493685 # Ow 
275 1 11 -0.820000 0.000000 7.451425 21.493685 # Ow 
276 1 11 -0.820000 3.367600 7.451425 21.493685 # Ow 
277 1 11 -0.820000 10.102800 7.451425 21.493685 # Ow 
278 1 11 -0.820000 0.000000 9.935234 21.493685 # Ow 
279 1 11 -0.820000 3.367600 9.935234 21.493685 # Ow 
280 1 11 -0.820000 6.735200 9.935234 21.493685 # Ow 
281 1 11 -0.820000 10.102800 9.935234 21.493685 # Ow 
282 1 11 -0.820000 0.000000 0.000000 23.993685 # Ow 
283 1 11 -0.820000 6.735200 0.000000 23.993685 # Ow 
284 1 11 -0.820000 10.102800 0.000000 23.993685 # Ow 
285 1 11 -0.820000 0.000000 2.483808 23.993685 # Ow 
286 1 11 -0.820000 3.367600 2.483808 23.993685 # Ow 
287 1 11 -0.820000 6.735200 2.483808 23.993685 # Ow 
288 1 11 -0.820000 10.102800 2.483808 23.993685 # Ow 
289 1 11 -0.820000 0.000000 4.967617 23.993685 # Ow 
290 1 11 -0.820000 3.367600 4.967617 23.993685 # Ow 
291 1 11 -0.820000 6.735200 4.967617 23.993685 # Ow 
292 1 11 -0.820000 10.102800 4.967617 23.993685 # Ow 
293 1 11 -0.820000 0.000000 7.451425 23.993685 # Ow 
294 1 11 -0.820000 3.367600 7.451425 23.993685 # Ow 
295 1 11 -0.820000 6.735200 7.451425 23.993685 # Ow 
296 1 11 -0.820000 10.102800 7.451425 23.993685 # Ow 
297 1 11 -0.820000 0.000000 9.935234 23.993685 # Ow 
298 1 11 -0.820000 3.367600 9.935234 23.993685 # Ow 
299 1 11 -0.820000 6.735200 9.935234 23.993685 # Ow 
300 1 11 -0.820000 10.102800 9.935234 23.993685 # Ow 
301 1 11 -0.820000 0.000000 0.000000 26.493685 # Ow 
302 1 11 -0.820000 6.735200 0.000000 26.493685 # Ow 
303 1 11 -0.820000 0.000000 2.483808 26.493685 # Ow 
304 1 11 -0.820000 3.367600 2.483808 26.493685 # Ow 
305 1 11 -0.820000 6.735200 2.483808 26.493685 # Ow 
306 1 11 -0.820000 10.102800 2.483808 26.493685 # Ow 
307 1 11 -0.820000 0.000000 4.967617 26.493685 # Ow 
308 1 11 -0.820000 3.367600 4.967617 26.493685 # Ow 
309 1 11 -0.820000 10.102800 4.967617 26.493685 # Ow 
310 1 11 -0.820000 0.000000 7.451425 26.493685 # Ow 
311 1 11 -0.820000 3.367600 7.451425 26.493685 # Ow 
312 1 11 -0.820000 6.735200 7.451425 26.493685 # Ow 
313 1 11 -0.820000 10.102800 7.451425 26.493685 # Ow 
314 1 11 -0.820000 0.000000 9.935234 26.493685 # Ow 
315 1 11 -0.820000 3.367600 9.935234 26.493685 # Ow 
316 1 11 -0.820000 6.735200 9.935234 26.493685 # Ow 
317 1 11 -0.820000 10.102800 9.935234 26.493685 # Ow 
318 1 11 -0.820000 0.000000 0.000000 28.993685 # Ow 
319 1 11 -0.820000 3.367600 0.000000 28.993685 # Ow 
320 1 11 -0.820000 6.735200 0.000000 28.993685 # Ow 
321 1 11 -0.820000 10.102800 0.000000 28.993685 # Ow 
322 1 11 -0.820000 0.000000 2.483808 28.993685 # Ow 
323 1 11 -0.820000 6.735200 2.483808 28.993685 # Ow 
324 1 11 -0.820000 10.102800 2.483808 28.993685 # Ow 
325 1 11 -0.820000 0.000000 4.967617 28.993685 # Ow 
326 1 11 -0.820000 3.367600 4.967617 28.993685 # Ow 
327 1 11 -0.820000 6.735200 4.967617 28.993685 # Ow 
328 1 11 -0.820000 10.102800 4.967617 28.993685 # Ow 
329 1 11 -0.820000 0.000000 7.451425 28.993685 # Ow 
330 1 11 -0.820000 3.367600 7.451425 28.993685 # Ow 
331 1 11 -0.820000 6.735200 7.451425 28.993685 # Ow 
332 1 11 -0.820000 10.102800 7.451425 28.993685 # Ow 
333 1 11 -0.820000 0.000000 9.935234 28.993685 # Ow 
334 1 11 -0.820000 6.735200 9.935234 28.993685 # Ow 
335 1 11 -0.820000 10.102800 9.935234 28.993685 # Ow 
336 1 9 -0.950000 2.426144 1.508347 12.776816 # Oh 
337 1 9 -0.950000 7.185412 3.135242 37.622009 # Oh 
338 1 9 -0.950000 1.958554 7.373875 35.419170 # Oh 
339 1 9 -0.950000 6.129865 1.627533 1.703907 # Oh 
340 1 9 -0.950000 0.288702 8.928725 37.757191 # Oh 
341 1 9 -0.950000 3.114117 9.344763 37.622009 # Oh 
342 1 9 -0.950000 1.744046 11.506297 37.633766 # Oh 
343 1 9 -0.950000 3.817887 3.135205 3.628327 # Oh 
344 1 9 -0.950000 5.692024 5.823927 44.491478 # Oh 
345 1 9 -0.950000 1.620729 12.033448 44.491478 # Oh 
346 1 9 -0.950000 12.765049 1.164354 35.419170 # Oh 
347 1 9 -0.950000 10.514893 8.401536 10.621219 # Oh 
348 1 9 -0.950000 12.588734 0.030444 44.626656 # Oh 
349 1 9 -0.950000 9.789602 10.822628 35.478168 # Oh 
350 1 9 -0.950000 6.099882 12.203731 12.515685 # Oh 
351 1 9 -0.950000 10.553087 3.135205 3.628327 # Oh 
352 1 9 -0.950000 9.183016 5.296739 3.640084 # Oh 
353 1 9 -0.950000 13.157277 10.822591 1.484484 # Oh 
354 1 5 0.410000 3.347912 0.989936 35.197239 # Hw 
355 1 5 0.410000 2.565702 2.355348 35.040527 # Hw 
356 1 5 0.410000 4.808387 3.530511 38.132324 # Hw 
357 1 5 0.410000 4.683483 2.668708 36.812305 # Hw 
358 1 5 0.410000 1.979761 2.318530 36.147732 # Hw 
359 1 5 0.410000 1.027052 2.933923 35.045734 # Hw 
360 1 5 0.410000 0.343210 2.881829 43.985390 # Hw 
361 1 5 0.410000 1.086491 1.612716 44.566463 # Hw 
362 1 5 0.410000 5.969099 1.212971 33.437744 # Hw 
363 1 5 0.410000 4.432915 1.279502 33.807163 # Hw 
364 1 5 0.410000 4.326157 4.598911 34.981598 # Hw 
365 1 5 0.410000 3.762890 3.997105 33.632034 # Hw 
366 1 5 0.410000 6.880806 4.160539 11.978111 # Hw 
367 1 5 0.410000 8.364800 4.685238 12.130466 # Hw 
368 1 5 0.410000 2.632849 9.118904 34.795879 # Hw 
369 1 5 0.410000 4.099447 9.440566 34.299511 # Hw 
370 1 5 0.410000 1.649794 0.670158 0.953933 # Hw 
371 1 5 0.410000 1.567567 0.896295 -0.609032 # Hw 
372 1 5 0.410000 1.036518 1.897693 3.194964 # Hw 
373 1 5 0.410000 1.295288 2.415071 4.666738 # Hw 
374 1 5 0.410000 -0.128661 12.014574 34.264912 # Hw 
375 1 5 0.410000 -0.501466 10.544092 34.711521 # Hw 
376 1 5 0.410000 4.388129 12.342791 38.161430 # Hw 
377 1 5 0.410000 5.179602 11.041207 37.736923 # Hw 
378 1 5 0.410000 3.589844 3.727632 0.821105 # Hw 
379 1 5 0.410000 2.895060 5.106851 0.480828 # Hw 
380 1 5 0.410000 4.411023 4.008185 45.938457 # Hw 
381 1 5 0.410000 3.856560 5.489170 45.942261 # Hw 
382 1 5 0.410000 10.705286 9.211347 33.471020 # Hw 
383 1 5 0.410000 10.629304 8.308733 34.767277 # Hw 
384 1 5 0.410000 13.175783 9.505107 11.195667 # Hw 
385 1 5 0.410000 13.375245 8.002665 11.646937 # Hw 
386 1 5 0.410000 9.043844 1.673595 -0.629171 # Hw 
387 1 5 0.410000 7.845783 1.734957 0.401190 # Hw 
388 1 5 0.410000 13.318675 2.098860 46.604088 # Hw 
389 1 5 0.410000 11.759452 2.139896 46.864662 # Hw 
390 1 5 0.410000 6.257483 10.224324 33.814213 # Hw 
391 1 5 0.410000 7.660548 10.723564 34.346123 # Hw 
392 1 5 0.410000 10.039521 11.928689 12.694264 # Hw 
393 1 5 0.410000 10.008182 10.551246 13.470427 # Hw 
394 1 5 0.410000 12.696185 11.805793 10.453636 # Hw 
395 1 5 0.410000 11.695115 12.923997 10.951871 # Hw 
396 1 5 0.410000 8.586985 7.652294 45.781055 # Hw 
397 1 5 0.410000 7.978961 6.875150 47.016823 # Hw 
398 1 5 0.410000 10.147041 5.365998 0.924881 # Hw 
399 1 5 0.410000 10.503259 3.826339 0.867268 # Hw 
400 1 5 0.410000 11.157823 5.445292 45.931576 # Hw 
401 1 5 0.410000 9.849218 4.909459 46.639526 # Hw 
402 1 5 0.410000 9.604363 9.481061 4.037693 # Hw 
403 1 5 0.410000 11.111286 9.596078 3.572167 # Hw 
404 1 5 0.410000 13.787715 9.128306 -0.744709 # Hw 
405 1 5 0.410000 12.821654 8.066509 -0.081330 # Hw 
406 1 5 0.410000 9.985224 8.569519 -0.581243 # Hw 
407 1 5 0.410000 11.148070 9.538226 -0.122814 # Hw 
408 1 5 0.410000 9.181720 11.275723 -0.155400 # Hw 
409 1 5 0.410000 10.614607 11.205639 -0.820745 # Hw 
410 1 5 0.410000 0.519297 -0.645566 16.014301 # Hw 
411 1 5 0.410000 -0.420921 0.523270 15.811594 # Hw 
412 1 5 0.410000 3.289648 -0.609293 15.759574 # Hw 
413 1 5 0.410000 3.477312 0.857535 16.082796 # Hw 
414 1 5 0.410000 7.690169 -0.014906 16.557270 # Hw 
415 1 5 0.410000 6.557648 0.002771 15.553099 # Hw 
416 1 5 0.410000 10.081165 -0.026397 15.537092 # Hw 
417 1 5 0.410000 10.695277 0.722892 16.700151 # Hw 
418 1 5 0.410000 0.398399 2.847659 17.284330 # Hw 
419 1 5 0.410000 0.465465 2.908909 15.773362 # Hw 
420 1 5 0.410000 3.052819 2.692774 17.373159 # Hw 
421 1 5 0.410000 2.737032 2.902407 15.907687 # Hw 
422 1 5 0.410000 6.340654 2.498532 17.365664 # Hw 
423 1 5 0.410000 5.990368 2.511603 15.893113 # Hw 
424 1 5 0.410000 10.977161 2.094904 16.515553 # Hw 
425 1 5 0.410000 9.903222 2.572578 15.561739 # Hw 
426 1 5 0.410000 -0.042972 4.990402 17.449648 # Hw 
427 1 5 0.410000 -0.806920 5.395474 16.207239 # Hw 
428 1 5 0.410000 3.020026 4.982432 17.385426 # Hw 
429 1 5 0.410000 2.592070 5.000673 15.933600 # Hw 
430 1 5 0.410000 6.086629 5.560961 16.872538 # Hw 
431 1 5 0.410000 6.626966 5.066634 15.547791 # Hw 
432 1 5 0.410000 10.290092 4.710039 17.396351 # Hw 
433 1 5 0.410000 10.569850 4.325294 15.959345 # Hw 
434 1 5 0.410000 0.308793 6.631498 16.108198 # Hw 
435 1 5 0.410000 -0.208850 8.005977 15.741961 # Hw 
436 1 5 0.410000 2.621314 7.950483 16.161674 # Hw 
437 1 5 0.410000 3.821650 7.147792 15.707632 # Hw 
438 1 5 0.410000 7.262591 7.309141 17.279715 # Hw 
439 1 5 0.410000 7.337877 7.288829 15.768029 # Hw 
440 1 5 0.410000 9.399527 7.191252 15.898748 # Hw 
441 1 5 0.410000 10.819090 7.716414 15.916673 # Hw 
442 1 5 0.410000 0.682396 9.948436 15.822571 # Hw 
443 1 5 0.410000 -0.820473 9.919360 16.000933 # Hw 
444 1 5 0.410000 2.907097 9.717118 17.303989 # Hw 
445 1 5 0.410000 2.773913 9.654035 15.797484 # Hw 
446 1 5 0.410000 6.654539 9.120939 15.997044 # Hw 
447 1 5 0.410000 6.802792 10.617595 15.825817 # Hw 
448 1 5 0.410000 0.114081 -0.048909 19.942802 # Hw 
449 1 5 0.410000 0.815980 -0.349828 18.635874 # Hw 
450 1 5 0.410000 7.465535 -0.552664 18.715467 # Hw 
451 1 5 0.410000 6.337550 0.300912 18.176641 # Hw 
452 1 5 0.410000 9.900367 0.580107 19.727665 # Hw 
453 1 5 0.410000 9.919360 0.525678 18.215067 # Hw 
454 1 5 0.410000 -0.685627 3.034776 18.616083 # Hw 
455 1 5 0.410000 0.456632 2.116861 18.236670 # Hw 
456 1 5 0.410000 3.449307 2.324559 19.934000 # Hw 
457 1 5 0.410000 3.762721 1.713707 18.584961 # Hw 
458 1 5 0.410000 6.783953 2.325108 19.936377 # Hw 
459 1 5 0.410000 6.991005 1.651117 18.596922 # Hw 
460 1 5 0.410000 9.599106 2.347942 18.191147 # Hw 
461 1 5 0.410000 10.979077 2.720175 18.689545 # Hw 
462 1 5 0.410000 0.000835 4.986294 18.036667 # Hw 
463 1 5 0.410000 -0.041585 4.037331 19.215202 # Hw 
464 1 5 0.410000 3.823501 4.156288 18.769781 # Hw 
465 1 5 0.410000 3.147261 5.359736 18.148743 # Hw 
466 1 5 0.410000 6.698245 4.062631 19.303307 # Hw 
467 1 5 0.410000 6.732222 4.894696 18.039270 # Hw 
468 1 5 0.410000 10.126916 4.977152 18.036835 # Hw 
469 1 5 0.410000 9.235283 4.624617 19.208153 # Hw 
470 1 5 0.410000 0.948728 7.507562 18.879681 # Hw 
471 1 5 0.410000 -0.347721 7.430850 18.102114 # Hw 
472 1 5 0.410000 3.465655 7.246734 18.063782 # Hw 
473 1 5 0.410000 2.954102 8.314605 19.006777 # Hw 
474 1 5 0.410000 7.400829 7.284615 19.661024 # Hw 
475 1 5 0.410000 7.195244 7.336135 18.162239 # Hw 
476 1 5 0.410000 9.340921 6.934413 19.255352 # Hw 
477 1 5 0.410000 10.083935 7.438623 18.036755 # Hw 
478 1 5 0.410000 0.340138 9.266122 19.587677 # Hw 
479 1 5 0.410000 0.175433 9.590127 18.118265 # Hw 
480 1 5 0.410000 3.852914 10.647839 19.409491 # Hw 
481 1 5 0.410000 3.472689 10.089540 18.054867 # Hw 
482 1 5 0.410000 9.787906 10.760672 18.625275 # Hw 
483 1 5 0.410000 10.308773 9.395312 18.230602 # Hw 
484 1 5 0.410000 0.369323 0.498359 20.764664 # Hw 
485 1 5 0.410000 -0.512706 -0.691837 21.075682 # Hw 
486 1 5 0.410000 3.923012 0.538331 20.929815 # Hw 
487 1 5 0.410000 2.836540 -0.514728 20.886015 # Hw 
488 1 5 0.410000 6.725797 0.069308 20.539042 # Hw 
489 1 5 0.410000 6.861807 -0.933197 21.664991 # Hw 
490 1 5 0.410000 9.432423 -0.258680 22.126068 # Hw 
491 1 5 0.410000 9.699457 -0.155639 20.639681 # Hw 
492 1 5 0.410000 0.514451 2.550525 20.689245 # Hw 
493 1 5 0.410000 -0.901156 2.366942 21.192863 # Hw 
494 1 5 0.410000 2.574348 1.965502 21.358250 # Hw 
495 1 5 0.410000 3.675980 2.685302 20.610207 # Hw 
496 1 5 0.410000 6.249040 2.880659 20.770918 # Hw 
497 1 5 0.410000 7.398997 1.941953 21.067072 # Hw 
498 1 5 0.410000 9.323982 2.955425 21.198299 # Hw 
499 1 5 0.410000 10.542421 2.217594 20.686159 # Hw 
500 1 5 0.410000 0.195501 4.250678 22.097015 # Hw 
501 1 5 0.410000 0.104721 4.583585 20.623175 # Hw 
502 1 5 0.410000 3.270668 4.017530 21.558268 # Hw 
503 1 5 0.410000 3.385523 5.143295 20.552914 # Hw 
504 1 5 0.410000 6.227195 4.876939 20.687494 # Hw 
505 1 5 0.410000 7.630759 5.127473 21.195940 # Hw 
506 1 5 0.410000 9.807204 5.371595 20.677807 # Hw 
507 1 5 0.410000 10.643252 4.229005 21.213331 # Hw 
508 1 5 0.410000 -0.012760 7.399256 22.449375 # Hw 
509 1 5 0.410000 -0.216624 6.565727 21.202400 # Hw 
510 1 5 0.410000 3.030172 7.229043 22.361395 # Hw 
511 1 5 0.410000 2.750647 7.044823 20.885181 # Hw 
512 1 5 0.410000 9.682987 7.145124 22.297529 # Hw 
513 1 5 0.410000 9.579221 7.069415 20.789293 # Hw 
514 1 5 0.410000 -0.123785 9.783774 22.430683 # Hw 
515 1 5 0.410000 -0.543072 9.270747 21.069700 # Hw 
516 1 5 0.410000 3.419831 9.651321 20.581051 # Hw 
517 1 5 0.410000 3.194658 10.875300 21.442705 # Hw 
518 1 5 0.410000 5.882797 9.913614 21.928623 # Hw 
519 1 5 0.410000 6.527674 9.929970 20.559265 # Hw 
520 1 5 0.410000 9.880520 10.189702 22.389267 # Hw 
521 1 5 0.410000 9.588046 10.524530 20.942329 # Hw 
522 1 5 0.410000 -0.866041 -0.183876 23.629822 # Hw 
523 1 5 0.410000 0.561429 0.119202 23.227642 # Hw 
524 1 5 0.410000 6.656335 0.056263 24.945969 # Hw 
525 1 5 0.410000 6.004409 0.521347 23.661459 # Hw 
526 1 5 0.410000 10.194958 -0.017659 24.946274 # Hw 
527 1 5 0.410000 10.985495 -0.169135 23.664330 # Hw 
528 1 5 0.410000 0.906047 2.646137 24.256287 # Hw 
529 1 5 0.410000 0.023398 2.488000 23.036779 # Hw 
530 1 5 0.410000 3.519620 1.594226 24.312691 # Hw 
531 1 5 0.410000 3.381562 2.402109 23.040079 # Hw 
532 1 5 0.410000 7.490646 2.997532 23.707991 # Hw 
533 1 5 0.410000 6.317332 2.199647 23.180744 # Hw 
534 1 5 0.410000 10.123934 3.356811 23.601700 # Hw 
535 1 5 0.410000 10.088324 1.885838 23.246386 # Hw 
536 1 5 0.410000 0.415289 4.639764 24.791355 # Hw 
537 1 5 0.410000 0.502161 4.571182 23.281712 # Hw 
538 1 5 0.410000 3.375057 4.927857 24.950027 # Hw 
539 1 5 0.410000 3.536402 4.067555 23.715069 # Hw 
540 1 5 0.410000 6.818377 4.725571 24.916033 # Hw 
541 1 5 0.410000 7.004578 4.183722 23.514959 # Hw 
542 1 5 0.410000 9.805484 5.493602 24.736095 # Hw 
543 1 5 0.410000 9.823551 5.461639 23.222843 # Hw 
544 1 5 0.410000 -0.280250 7.578837 24.900026 # Hw 
545 1 5 0.410000 -0.728627 7.782685 23.468706 # Hw 
546 1 5 0.410000 3.485691 8.273768 23.518248 # Hw 
547 1 5 0.410000 3.272604 6.789909 23.308407 # Hw 
548 1 5 0.410000 6.456276 7.757731 24.856590 # Hw 
549 1 5 0.410000 6.242559 7.992428 23.376553 # Hw 
550 1 5 0.410000 10.044947 7.281158 23.053528 # Hw 
551 1 5 0.410000 10.410114 8.355877 24.054981 # Hw 
552 1 5 0.410000 -0.880786 9.579215 23.876640 # Hw 
553 1 5 0.410000 0.325589 10.066839 23.103231 # Hw 
554 1 5 0.410000 3.246210 9.968579 23.044798 # Hw 
555 1 5 0.410000 4.283842 9.683549 24.109388 # Hw 
556 1 5 0.410000 7.407542 10.015205 23.317080 # Hw 
557 1 5 0.410000 5.916392 9.837841 23.507578 # Hw 
558 1 5 0.410000 9.365619 9.476094 24.396158 # Hw 
559 1 5 0.410000 9.956626 9.844192 23.052101 # Hw 