ITEM: TIMESTEP
101000
ITEM: NUMBER OF ATOMS
657
ITEM: BOX BOUNDS pp pp pp
-3.5901174809273861e-01 1.3245571748092948e+01
-1.5350272414610799e-01 1.2144302724145785e+01
2.6994927039650491e+00 4.3496585296034368e+01
ITEM: ATOMS id element xu yu zu
36 Ca 3.04423 2.7942 4.41882
111 O 4.35107 4.55187 7.91321
207 O 2.08534 4.84712 5.16187
343 O 4.98106 4.66617 5.42886
372 H 1.33943 5.23189 4.59556
12 Ca 1.96206 4.76948 7.69861
197 O 4.21308 13.9772 5.96097
89 O 1.46199 2.52153 7.30323
189 O 1.5821 13.4992 3.8473
27 Ca 3.10699 13.3473 7.90348
77 Si 13.6072 14.4332 6.92104
176 O 13.6733 13.3435 5.80951
84 Si 14.2805 12.5804 4.62433
143 O 5.54539 12.8257 7.71124
58 Si 5.57077 4.26054 6.89941
637 H 4.40769 5.52311 5.18655
134 O 13.4771 5.83863 7.23987
373 H 2.72254 5.62876 5.28315
370 H 1.07069 2.3949 2.77039
74 Si 5.62671 13.7494 6.49075
399 H 6.28989 4.64927 4.29826
211 O 5.13079 1.78176 43.8667
161 O 6.06872 2.85226 6.89742
353 O 13.0673 12.053 3.63966
206 O 0.559937 2.85439 1.96113
171 O 12.8475 3.441 6.55257
645 H 12.8496 5.66943 4.24275
147 O 12.8811 13.7437 8.18971
69 Si 12.3353 4.91709 6.50553
351 O 12.1478 5.38989 4.99566
112 O 6.72866 5.30274 7.1427
339 O 8.87971 3.40119 5.21048
633 H 9.48718 3.79263 4.54073
133 O 11.008 4.9853 7.30828
22 Ca 8.83546 4.20803 7.28282
388 H 11.2732 2.07541 45.1231
215 O 10.9522 1.18366 45.4246
103 O 6.63132 0.859778 5.43874
32 Ca 8.8905 13.3988 5.43856
92 O 9.27467 1.81409 7.6518
389 H 11.6672 0.582723 44.9732
398 H 7.89053 4.44229 4.1632
220 O 7.06566 4.68487 3.63785
68 Si 9.32496 13.2885 8.95126
401 H 8.34724 2.37667 43.905
221 O 8.20681 1.3967 43.8084
646 H 10.4026 5.678 4.80651
4 Ca 11.3296 4.48577 9.53374
132 O 8.03863 12.5107 9.28828
187 O 0.44667 5.89534 44.1188
38 Ca 4.40823 6.88841 3.11551
186 O 3.6307 6.88826 5.29819
113 O 2.57788 7.1477 7.60898
59 Si 3.39922 7.85693 6.50601
39 Ca 2.00858 8.91279 3.68845
61 Si 1.87227 10.5629 6.46981
164 O 2.48959 9.09391 6.11117
175 O 15.0484 11.3303 5.22192
114 O 4.70923 8.41504 7.18519
118 O 2.95434 11.2763 7.37291
26 Ca 5.1727 10.6068 7.37438
224 O 4.36324 9.35417 3.69612
146 O 14.1837 10.3284 7.38464
222 O 13.6587 8.09804 4.91106
407 H 4.41463 10.2781 3.11949
402 H 13.7993 7.31653 4.30903
406 H 5.23969 9.49054 4.26786
30 Ca 13.5434 8.08034 7.40089
639 H 0.495314 10.9968 43.335
45 Ca 6.34485 11.9446 3.67676
403 H 12.6501 8.03418 4.98156
166 O 10.4419 12.0982 8.88995
647 H 12.4015 11.6306 2.9558
31 Ca 12.2606 11.7275 7.53079
352 O 9.57967 6.28298 5.09003
23 Ca 6.83977 7.50715 7.71315
135 O 9.14829 7.14235 7.47083
386 H 11.2587 -2.66602 5.81676
196 O 6.53465 10.1321 5.17969
70 Si 9.6565 7.56653 6.13121
141 O 7.42263 9.86884 7.55811
214 O 11.3413 -1.64282 5.86277
387 H 10.2748 -1.43992 5.77223
73 Si 7.85153 9.89199 5.8986
136 O 11.0836 8.06391 5.99625
173 O 8.61153 8.62198 5.60418
142 O 8.80557 11.1677 5.73958
126 O 12.3885 10.7256 9.49863
409 H 8.13401 9.63993 2.45396
7 Ca 9.73515 7.45802 9.70617
125 O 9.92281 9.72916 9.78917
1 Ca 4.49687 4.18945 10.1986
47 Si 0.957952 4.65604 10.7671
79 Si 2.68625 3.24851 12.7383
87 O 2.26941 5.09133 9.85316
149 O 2.63643 1.67877 12.1449
150 O 1.48982 3.88359 11.9953
177 O 4.05567 3.81806 12.3427
336 O 2.53833 3.33157 14.2848
86 O 3.8318 1.82399 9.84838
119 O 13.6603 3.83575 9.83362
57 Si 2.98382 13.2349 10.8876
630 H 2.43598 3.56674 15.3117
110 O 1.59059 12.8968 10.0802
350 O 6.19936 12.848 12.0567
467 H 4.36154 5.17616 13.0199
445 H 1.7904 13.9808 15.106
413 H -2.11582 3.47629 16.1899
227 O -2.70129 2.66191 16.1161
469 H 5.77509 3.59891 13.0174
644 H 7.14329 12.5321 12.4461
11 Ca 6.10946 13.3622 9.83404
444 H 1.39116 12.9951 16.323
255 O 6.56138 3.35418 13.6102
461 H -8.15003 14.5373 14.3024
251 O -8.81723 13.9166 14.765
460 H -9.66264 14.5063 14.9599
394 H 14.4655 13.1984 12.8748
449 H 5.09308 -7.45746 14.8525
218 O 13.5568 12.9282 12.6252
395 H 13.6085 11.9435 12.485
243 O 1.51932 13.0641 15.2763
245 O 5.05284 -7.65383 15.8445
425 H 13.672 3.6091 13.2936
226 O -1.3268 5.48681 15.3418
411 H -0.903737 4.69733 14.8012
94 O 8.96128 4.68128 9.54554
21 Ca 13.0424 14.0094 10.3663
233 O 12.784 3.46303 13.8126
468 H 7.38255 3.46006 12.9453
424 H 12.067 3.30479 13.0707
93 O 6.75625 3.38167 10.0638
153 O 7.29306 5.61747 11.2459
49 Si 7.9265 4.30887 10.6408
80 Si 9.86947 2.5139 11.6004
154 O 8.6683 3.56352 11.8549
179 O 9.94711 1.36684 12.7322
180 O 11.2356 3.18928 11.4921
152 O 9.66432 1.86959 10.1965
41 Ca 11.6751 1.45266 14.4835
417 H 7.46829 2.03993 14.1897
229 O 8.06836 1.24328 14.3312
416 H 8.85101 1.27757 13.6286
423 H 10.5106 5.07202 14.2465
232 O 9.66173 5.3999 13.8577
422 H 9.22584 4.61882 13.3291
443 H -5.40821 5.27989 15.0216
453 H 7.33216 0.929508 15.8032
242 O -5.94212 5.62107 15.8248
123 O 14.0248 8.1319 9.66891
254 O 4.36134 6.084 13.5473
18 Ca 14.602 10.2926 9.69967
165 O 13.9015 5.9978 11.1423
42 Ca 4.95104 11.8456 13.876
437 H 2.08353 11.6512 14.5864
102 O 5.45442 10.7095 9.66496
505 H 3.93035 7.44635 14.9737
466 H 5.18924 6.4789 13.2307
426 H 0.795501 6.38663 13.4121
428 H 3.47088 7.13521 12.8399
100 O 5.17775 6.56594 10.3883
429 H 3.57845 8.65938 12.2133
2 Ca 2.87057 7.36174 9.89499
53 Si 4.26829 10.5019 10.6441
101 O 3.1544 9.65991 9.90165
157 O 3.72544 11.8456 11.0786
158 O 4.79725 9.69308 11.8921
213 O 14.1716 10.4359 12.1416
235 O 2.97281 7.82215 12.2536
239 O 2.81908 10.9367 14.3441
384 H 15.067 10.2299 12.5715
385 H 13.6412 9.59649 12.0803
436 H 2.45186 10.1187 14.7919
234 O 0.342987 7.10741 13.9789
273 O 4.4426 8.06163 15.5861
518 H 14.6402 8.3341 14.9742
182 O 6.06379 9.62265 14.0938
504 H 5.08934 8.55269 14.9564
81 Si 6.09401 9.26675 12.6185
501 H -7.52942 10.0473 15.6262
156 O 6.32991 7.72816 12.3017
52 Si 6.5336 6.92564 11.0281
457 H 1.30382 6.0336 19.0382
280 O 14.8182 9.14521 15.5146
271 O -7.45022 10.3131 16.6154
427 H -0.196969 7.73208 13.2542
410 H -0.615368 6.28568 15.1361
519 H 14.0273 9.7387 15.3709
63 Si 13.0595 7.29754 10.7725
650 Cl 12.2273 11.2619 15.503
191 O 12.8147 8.24968 11.9411
392 H 8.76424 11.7871 13.9892
641 H 10.3249 12.2537 12.0193
272 O -2.81526 8.10923 15.2641
502 H -2.6672 8.26175 16.2719
503 H -2.94858 7.04223 15.1309
217 O 8.96749 10.793 13.8279
124 O 11.7833 6.66336 10.02
366 H 9.43748 7.09159 12.6222
99 O 7.37774 7.74915 9.88523
204 O 9.54574 8.03389 12.2177
40 Ca 11.1981 9.70456 13.4652
367 H 8.57673 8.42387 12.1825
8 Ca 7.6713 10.2566 9.7175
64 Si 10.8738 10.9882 9.89818
183 O 7.34985 9.93489 11.8294
347 O 10.8161 11.5245 11.4078
393 H 8.41196 10.65 12.9489
439 H 7.11648 8.71544 14.9112
240 O 7.80188 8.019 15.1575
442 H -5.98725 6.66048 15.6636
438 H 8.69893 8.28497 14.8057
412 H -3.1678 2.3341 17.0143
236 O 2.7151 3.68012 16.9654
431 H 3.59859 3.91502 16.4988
430 H 2.47291 4.54334 17.509
441 H 15.2201 2.98279 17.897
260 O 3.02502 17.6595 20.8692
479 H 2.85233 17.3317 19.936
558 H 15.0225 14.0165 22.302
552 H -9.1514 0.58689 21.8886
477 H 19.1314 2.99414 21.0937
241 O 14.5607 2.64231 18.6206
440 H 14.2052 1.68738 18.408
249 O 1.8964 5.89458 18.2322
300 O 15.1316 14.7057 23.1016
484 H 1.36389 -10.6791 20.0634
263 O 1.3041 -11.4578 20.6624
485 H 1.83043 -12.2355 20.1908
266 O 12.9338 -7.95764 20.0275
559 H 15.8982 15.3148 22.8971
464 H 4.94292 -4.98692 17.2008
490 H 13.619 -8.44839 19.4496
274 O 18.6712 0.35687 20.3115
507 H 18.6944 0.802737 19.3839
491 H 12.1856 -7.66882 19.3262
605 H 15.0406 -6.79875 21.6651
456 H 1.78419 6.77479 17.7508
310 O 3.87993 3.6951 22.6229
579 H 3.62471 4.365 21.8724
553 H -9.44986 1.90278 22.7099
465 H 6.14659 -6.01987 17.636
578 H 4.57105 4.03389 23.2552
297 O -9.14119 0.951886 22.8207
448 H 6.02773 -7.64589 16.1438
259 O 19.985 3.15802 20.5877
476 H 19.7331 2.88243 19.5808
454 H -3.6389 -1.28415 16.8236
248 O -4.25931 -0.96929 17.6033
434 H -4.73261 3.72927 18.3709
238 O -5.14408 4.665 18.5023
435 H -5.50805 4.80596 17.5426
541 H 4.71277 14.243 17.6177
455 H -4.89836 -0.339626 17.1781
556 H 10.4918 3.04702 21.3233
557 H 11.9956 3.28074 20.5892
299 O 11.1933 2.65567 20.6607
291 O 5.48245 14.2469 18.2474
540 H 6.19758 13.7781 17.6853
486 H 10.0514 -10.2563 19.2411
264 O 9.38528 -10.1346 18.4941
487 H 8.57921 -10.7216 18.6368
494 H -6.11516 -11.0612 21.336
415 H 10.4006 5.44248 18.0768
414 H 11.7996 5.49569 17.2486
228 O 11.4127 5.30213 18.1583
510 H -2.47501 -1.63626 23.203
652 Cl 9.12009 4.10218 22.9609
654 Na 7.81732 5.05839 20.7044
247 O 7.14446 0.568096 16.7374
498 H 11.6991 0.867912 20.968
604 H 13.371 -6.79981 21.5727
323 O 14.1846 -6.61165 22.1822
499 H 13.2606 0.224197 20.9547
452 H 6.71732 -0.347728 16.5217
478 H 3.64278 18.494 20.8272
252 O 0.398939 0.0469762 17.9643
506 H 19.5096 -0.110267 20.291
462 H -0.386543 -0.293658 17.356
463 H 0.78205 -0.709228 18.5014
306 O 17.835 -4.52594 20.4145
570 H 18.1391 -4.67494 19.4549
571 H 17.1134 -3.80791 20.2676
483 H 2.55975 10.0806 19.1125
262 O 1.95102 10.4948 19.8114
253 O 5.60094 -5.26399 18.0076
482 H 1.66367 9.7707 20.4514
516 H 5.97635 6.20895 22.6462
517 H 5.70046 7.29057 21.3948
492 H 3.62081 -3.62934 16.9681
493 H 2.10934 -3.36378 17.071
267 O 2.85724 -3.53245 17.6458
500 H -7.7412 9.4915 17.0728
531 H 6.36199 -2.73085 23.7626
496 H 14.8468 7.62323 21.7123
450 H 12.2334 -2.27357 17.3961
270 O 12.2574 0.0514415 21.1701
279 O 6.29265 6.53688 21.7529
474 H 7.39163 7.90169 18.1198
419 H 11.5532 -1.38709 20.3143
269 O 14.5291 8.50066 21.336
230 O 10.7454 -1.85274 19.9012
382 H 15.261 11.4213 22.49
538 H -3.1826 -5.19107 20.3422
290 O -4.18038 -5.36403 20.4173
497 H 13.7285 8.17913 20.7626
480 H -3.62725 9.60935 21.1076
481 H -4.37997 8.19718 21.2449
261 O -4.08823 8.98375 21.7849
418 H 10.2759 -1.21644 19.2606
258 O 8.40866 8.00071 18.0954
475 H 8.64241 8.37775 17.2053
535 H 12.4385 6.40116 19.2665
534 H 12.5987 7.91902 18.7889
288 O 12.8775 7.25197 19.5322
246 O 12.0459 -3.10816 17.9228
257 O -6.19221 11.1123 19.8342
472 H -6.08275 11.1711 18.818
451 H 11.3615 -2.7468 18.5763
473 H -5.47774 10.5714 20.227
383 H 14.6888 9.81474 22.292
212 O 14.6744 10.7028 22.8795
539 H -4.61792 -4.92352 19.5993
567 H 7.07038 -1.42463 21.6799
566 H 7.86686 -2.65369 22.5129
304 O 7.23568 -1.89696 22.5999
276 O -2.99057 -0.747392 23.1042
420 H 1.69818 0.128644 25.0492
421 H 3.17827 0.319311 24.3137
231 O 2.74469 0.0835003 25.1779
589 H 1.83923 4.75956 26.2049
588 H 2.52026 6.07463 25.5963
315 O 2.43356 5.56378 26.4742
653 Na 6.62413 1.35196 26.5117
322 O 3.19792 1.61988 27.2202
602 H 3.13269 2.52698 26.7379
603 H 2.94487 0.896604 26.5069
311 O 6.85366 3.2387 25.154
580 H 6.43758 4.058 24.7576
561 H -9.57857 -6.86116 27.3422
542 H 1.12671 -10.3655 30.4818
524 H 5.45621 0.585731 23.8259
292 O 1.30674 -9.36896 30.2806
283 O 6.07166 0.117124 24.5666
536 H 5.24336 2.1382 29.6696
543 H 0.686094 -9.0644 29.486
301 O -8.84448 -6.94557 28.0631
537 H 4.03277 1.77959 28.72
583 H 2.50786 4.13362 30.058
526 H 14.6005 1.29466 28.201
527 H 13.4746 2.19732 27.3585
581 H 7.7641 3.41546 24.7469
560 H -9.23202 -7.13809 28.9452
278 O 5.25322 5.76054 24.6027
284 O 13.6054 1.38315 27.9835
515 H 4.55877 6.49074 24.4343
514 H 5.73705 6.14342 25.3694
289 O 4.28029 1.87308 29.6923
585 H 1.0171 3.02191 24.7251
268 O -5.46554 -11.146 22.1348
495 H -5.10768 -10.178 22.4475
657 Na 6.98347 5.38797 28.2018
313 O 0.696872 3.43014 25.6603
651 Cl 7.22626 2.70806 28.6579
569 H 9.28194 2.06981 25.4255
305 O 8.85271 1.13378 25.6526
568 H 9.58325 0.586855 26.1211
598 H 9.96067 4.08659 26.2392
320 O 10.3026 3.2958 25.6956
599 H 10.1113 3.50993 24.7335
629 H 13.2085 13.549 24.9382
390 H 9.86683 6.26204 27.4732
216 O 9.1236 5.60458 27.1686
327 O 10.5165 2.48174 28.4061
613 H 10.4284 2.55806 27.386
584 H -0.253876 3.84353 25.3967
597 H -1.49758 3.71792 28.5551
612 H 9.5596 2.48491 28.7191
319 O -0.759917 4.35391 28.7991
513 H 13.4613 6.69083 23.3454
314 O -1.03404 6.23527 26.8846
596 H -0.843317 5.11503 28.0516
43 Ca 11.7992 12.6121 29.1282
391 H 9.00577 5.79145 26.1941
277 O 13.1007 7.18267 24.2008
593 H 8.56343 5.70029 24.2802
586 H -0.795878 6.41736 25.9179
550 H 1.78995 -3.9306 27.4032
296 O 2.51789 -4.43773 27.8706
521 H 1.69414 10.3945 30.3209
432 H 2.46403 8.2367 24.808
237 O 3.39444 7.94718 24.6494
433 H 3.9572 8.72263 24.3912
459 H 2.27121 11.405 26.7736
520 H 2.38125 10.8107 28.9108
281 O 2.45357 10.9183 29.931
250 O 1.76965 10.6432 27.2739
530 H 6.8528 -3.07441 25.2302
446 H 0.820419 9.88452 24.5043
286 O 5.99528 -3.09855 24.6167
244 O 0.997271 9.2384 25.2662
312 O 3.14556 4.83092 30.4362
525 H 5.83631 -0.825261 24.6123
470 H 4.83364 8.94222 26.2383
256 O 4.71986 9.18821 27.2713
471 H 3.85695 8.61218 27.557
577 H 15.4661 -4.938 29.3873
458 H 1.44488 10.0065 26.4997
545 H -9.3632 10.3414 29.858
562 H 19.8026 -4.13972 26.7613
309 O 15.2765 -5.05407 30.3593
576 H 14.8583 -4.17024 30.661
582 H 2.60556 5.52797 30.9841
285 O 6.31622 -0.691689 27.8595
529 H 5.63113 -1.4493 27.8461
302 O 20.3113 -4.98927 26.7281
447 H 0.56879 8.43098 24.8203
544 H -7.97586 9.60071 29.3475
551 H 2.48264 -5.40059 27.6037
563 H 20.8971 -4.91642 25.9287
528 H 7.25196 -1.04676 27.6767
628 H 13.3922 12.3093 23.9499
335 O 13.5012 12.5682 24.9149
489 H 11.8974 -0.742219 26.1847
265 O 10.9942 -0.512213 26.6235
511 H -2.42915 -0.242801 22.3927
655 Na 8.46743 -0.336258 23.9457
549 H -3.22049 8.72778 23.2409
548 H -3.37545 8.95562 24.796
295 O -2.87646 8.35116 24.141
512 H 12.1951 7.68194 23.9118
592 H 9.26279 7.13424 24.2351
648 Cl 8.74198 -2.28193 26.0336
488 H 10.2991 -1.29175 26.543
317 O 8.61012 6.5428 24.773
587 H -1.76435 6.86749 27.2133
532 H 8.34389 -3.39543 28.6325
621 H 0.242904 10.6196 28.0369
331 O -0.633791 10.3098 28.6042
287 O 8.27325 -3.02331 29.5712
555 H 10.1883 8.62753 27.2047
298 O 10.9764 8.24735 27.6479
611 H 7.98415 7.50818 30.0122
574 H 4.0889 0.723014 30.9397
308 O 3.8413 0.143939 31.7433
338 O 0.633892 4.90248 34.852
614 H 1.8898 3.68609 35.0486
328 O 2.69415 3.03269 34.8487
615 H 3.48086 3.68708 34.6981
631 H 5.03225 3.48735 35.6933
181 O 4.51263 4.93181 35.1017
594 H 1.71858 1.75694 34.132
318 O 1.25161 0.832772 33.9603
595 H 0.941822 0.823338 33.0148
202 O 4.35578 3.11959 32.2778
51 Si 4.22668 5.72336 36.4238
363 H 3.88539 2.97121 31.4191
355 H 0.153297 4.30372 33.1358
362 H 3.90077 2.48527 32.9224
600 H 6.352 1.20914 34.212
575 H 3.04022 -0.393326 31.4192
606 H 6.24234 4.74581 34.9498
591 H 5.86438 15.0217 32.6117
357 H 4.50257 0.299719 35.9363
321 O 6.08836 0.289799 34.2306
199 O 3.55003 0.330779 36.2681
636 H 0.972286 12.3891 35.0783
337 O 5.29379 2.78017 36.4461
356 H 2.99853 0.27636 35.4407
198 O -0.115052 3.58657 32.4414
375 H -0.401774 14.0673 31.9566
573 H 1.88403 5.53406 33.9461
632 H -0.401112 5.23616 34.8348
508 H -6.93935 0.241191 30.1222
208 O 0.0199731 13.2309 31.4968
275 O -6.70724 -0.11373 31.0266
374 H -0.342517 12.3188 31.9674
358 H -0.963863 3.83514 31.9735
590 H 7.55705 14.939 32.419
316 O 6.81393 14.9074 33.1104
547 H -5.22385 2.84296 30.5471
294 O -4.60916 2.66382 31.3956
34 Ca -2.2918 6.56745 32.9485
354 H 0.631425 3.61409 31.7594
200 O -1.59072 3.00954 32.0173
546 H -4.4785 1.67764 31.4853
35 Ca -2.0644 3.09843 34.5753
359 H -2.40325 2.97969 31.3856
190 O 11.7964 5.47293 34.958
325 O -4.03021 1.84683 35.2637
608 H -5.01355 1.84391 34.9759
609 H -3.82632 0.912453 35.514
324 O 7.27589 5.022 35.0242
616 H -4.29242 4.51271 31.8808
62 Si 11.1435 5.88088 36.3084
607 H 7.66955 4.10771 35.0915
329 O -4.19972 5.54622 32.0112
617 H -5.05672 5.89825 31.5555
649 Cl 9.95949 -0.441031 30.7783
509 H -5.7325 -0.371711 31.0377
640 H 11.7477 -0.952806 31.9528
293 O -8.53414 9.79554 30.1264
33 Ca 4.57838 5.42057 32.8234
368 H 0.235824 6.73387 30.8711
205 O -0.730013 6.55338 31.1881
572 H 1.9178 6.98523 33.4137
307 O 2.34714 6.09645 33.1864
564 H 3.43415 -5.0789 30.9031
624 H 0.0283043 8.30265 34.206
565 H 4.67487 -4.05153 31.0149
303 O 4.33986 -4.94955 31.417
656 Na 5.35086 11.1719 32.5101
333 O 0.896546 8.38226 33.628
625 H 1.57215 8.71122 34.2957
160 O 3.60267 7.10093 36.2066
341 O 2.44089 9.34628 35.6707
342 O 0.638946 11.8243 35.9983
635 H 1.866 10.2221 35.6382
282 O 4.28274 -2.85807 33.6523
523 H 3.93837 -3.59264 33.0395
522 H 3.72348 -2.84563 34.4835
623 H 14.5096 9.08534 32.2062
332 O 14.2574 9.61653 31.3215
376 H 5.24668 8.88241 34.7126
209 O 5.90876 8.6678 35.4756
369 H -1.03899 5.82507 30.537
622 H 13.4019 10.1217 31.6642
626 H 6.69227 7.53746 32.9523
601 H 6.73887 -0.197124 34.9208
533 H 8.95262 -2.24326 29.5826
620 H -0.254723 10.0153 29.4452
377 H 6.79092 8.9561 35.1708
326 O 7.34959 6.66895 30.0608
627 H 7.25803 6.25992 33.7414
203 O 7.1133 -3.00394 32.5246
610 H 6.6591 6.8258 30.8096
334 O 6.79603 6.54929 32.8781
346 O 12.5017 -1.13688 32.651
364 H 7.80281 -2.43589 32.9728
365 H 7.27334 -2.94462 31.4912
554 H 11.5746 9.04699 28.0486
340 O -1.07261 8.63277 35.4483
619 H 9.63412 9.00688 34.0988
330 O 10.3872 8.72718 33.4165
618 H 10.2489 9.37931 32.5821
643 H 9.21843 11.4583 32.7669
46 Ca 12.1984 10.8885 34.9184
634 H -2.00859 8.11572 35.4575
83 Si 8.87304 10.9476 35.3158
168 O 10.4008 7.2328 36.2164
169 O 9.0213 9.36842 35.5621
170 O 7.58708 11.4468 36.0601
193 O 10.1751 11.6649 35.8476
349 O 8.83915 11.1 33.7013
380 H 5.78482 2.52044 44.0691
371 H 0.927494 3.75199 1.82871
381 H 4.65807 1.97533 42.9369
210 O 3.76783 4.46114 2.5132
37 Ca 2.76861 0.31558 42.8864
97 O 3.11707 4.89339 37.2001
6 Ca 0.823781 5.25807 37.1808
178 O 0.85362 2.99093 37.3176
378 H 4.66239 4.19063 2.09247
151 O -0.24344 0.820547 38.1067
379 H 3.06558 4.58907 1.79443
5 Ca 3.02506 2.50622 37.1436
54 Si 2.93866 1.96101 40.3751
60 Si 2.07016 4.93408 40.3807
105 O 1.70742 1.06506 40.7474
106 O 3.36746 1.33082 38.9466
116 O 0.876662 5.34152 39.4917
159 O 2.56652 3.43838 40.2347
185 O 4.06384 1.72765 41.3755
162 O 1.53862 5.1723 41.8772
13 Ca 5.40868 5.29348 39.824
115 O 3.2698 5.91664 40.1541
95 O 5.89296 2.99594 38.9165
9 Ca 6.21455 1.72705 40.8187
344 O 5.94546 3.92561 41.7491
50 Si 6.40439 2.42629 37.5845
48 Si -0.450671 2.29614 37.7505
98 O 5.52946 5.84419 37.2589
400 H 8.23389 1.20268 42.8328
396 H 12.6213 5.35932 42.559
155 O 6.61069 0.884473 37.5871
201 O -3.45171 3.54301 43.3394
3 Ca -0.486792 1.70321 40.9562
120 O 11.9758 2.44883 36.6458
88 O -0.958631 3.11263 39.068
121 O 10.0736 4.8405 36.8168
397 H 11.3294 4.27255 42.7126
360 H -3.133 2.70876 42.7866
24 Ca 12.2719 5.35918 39.7399
219 O 12.0197 4.70428 42.0231
96 O 7.72117 3.10274 37.0697
16 Ca 9.94371 2.80104 37.568
17 Ca 7.85907 5.43711 37.2166
361 H -4.13894 4.11639 42.6731
65 Si 9.78018 1.85256 40.4609
71 Si 9.05158 4.83233 40.4368
127 O 8.46562 1.21979 41.0527
128 O 10.0677 1.08718 39.0912
138 O 7.8181 5.246 39.4179
167 O 9.49086 3.37048 40.0505
192 O 10.9212 1.64657 41.4553
194 O 8.67794 5.01704 41.905
638 H 6.91407 4.2752 42.0538
137 O 10.1274 5.91306 40.0501
642 H 10.9339 0.252244 42.5632
55 Si 2.66777 8.22384 36.8532
82 Si 1.10196 6.37925 42.8259
107 O 1.29667 7.63199 37.3623
188 O 2.30095 7.30462 42.9611
108 O 3.54867 8.77046 38.0335
56 Si 0.243798 11.6777 37.6163
85 O 1.50605 -1.08767 38.3501
345 O 1.4166 10.7784 42.9246
20 Ca 3.73553 11.4985 38.4334
14 Ca 3.12544 8.19045 40.347
15 Ca 1.23835 11.118 40.6729
117 O 0.921931 8.99303 40.5629
144 O 3.66115 10.842 40.6113
163 O -0.0627503 7.18827 42.0491
184 O 4.57311 -0.921 43.0477
75 Si 4.85546 10.8438 41.6112
172 O 5.30501 9.38882 41.7176
140 O 5.7352 7.71631 39.9617
131 O 5.71022 10.7833 37.6937
19 Ca 5.79208 8.23017 37.8181
104 O 6.03073 -0.588621 40.9583
76 Si 13.2264 8.34615 41.0572
44 Ca 8.26339 6.47582 2.76256
122 O 12.2803 6.0301 37.4225
405 H 10.3835 6.63359 1.19434
225 O 8.19235 10.6445 2.32505
408 H 9.09203 10.9729 2.63367
10 Ca -0.69446 8.39772 37.7464
90 O -0.838448 -0.629427 40.8398
145 O 12.4297 7.86228 39.7941
66 Si 9.45019 8.34179 36.7194
109 O -0.966425 10.7473 37.6866
174 O 12.3802 9.39379 41.8485
139 O 6.37951 7.22329 42.4776
223 O 10.1385 7.56048 1.61061
67 Si 6.9985 11.6649 37.4812
129 O 8.11391 7.75355 37.3111
404 H 10.9347 7.91968 2.14197
28 Ca 8.29461 11.2066 40.7969
78 Si 11.6766 10.7309 41.4198
91 O 8.22273 -0.973898 38.4538
29 Ca 10.4909 11.315 38.2719
130 O 10.1134 9.13999 37.8519
348 O 11.0382 -0.757672 42.6947
25 Ca 9.64773 8.15408 39.9799
72 Si 6.37232 8.27026 41.3279
148 O 10.5048 10.4012 40.4335
195 O 7.77291 8.87946 41.0369
ITEM: TIMESTEP
102000
ITEM: NUMBER OF ATOMS
657
ITEM: BOX BOUNDS pp pp pp
-3.5901174809273861e-01 1.3245571748092948e+01
-1.5350272414610799e-01 1.2144302724145785e+01
2.6994927039650491e+00 4.3496585296034368e+01
ITEM: ATOMS id element xu yu zu
36 Ca 3.30277 3.06678 4.41314
111 O 4.42139 4.16471 7.82547
207 O 1.85221 4.90746 5.31983
343 O 4.95395 4.76778 5.43682
372 H 1.42668 5.04025 4.3468
12 Ca 1.88462 4.94105 7.74389
197 O 4.3223 13.9356 5.86312
89 O 1.73932 2.73408 7.47504
189 O 2.00298 13.4834 3.80587
27 Ca 3.33787 13.4567 7.75447
77 Si 13.9547 14.3945 7.02328
176 O 14.1871 13.3411 5.87935
84 Si 14.6951 12.6635 4.62899
143 O 5.6244 12.9038 7.63798
58 Si 5.56711 4.30697 6.84177
637 H 4.45399 5.71385 5.36258
134 O 13.4631 5.71972 7.08701
373 H 2.3703 5.76839 5.44814
370 H 1.07264 2.23822 3.06861
74 Si 5.75153 13.755 6.35149
399 H 6.19008 4.69576 4.48933
211 O 5.78546 2.06615 43.3472
161 O 6.28782 2.9635 6.62363
187 O 0.526912 5.42229 43.9702
380 H 6.08162 3.07128 43.2327
171 O 13.0467 3.23803 6.49611
645 H 12.9229 5.21666 4.04662
147 O 13.3489 13.4754 8.19426
69 Si 12.4277 4.67847 6.38305
351 O 12.2367 5.10867 4.8762
112 O 6.66996 5.33941 7.22695
339 O 8.84659 3.23907 4.86068
633 H 9.33962 3.49921 3.96975
133 O 11.1738 4.65527 7.34552
22 Ca 8.94046 4.0849 7.07072
388 H 11.7629 1.72794 46.2333
215 O 11.351 0.810768 46.218
103 O 6.7168 0.733937 5.43677
32 Ca 9.04949 13.3149 5.36246
92 O 9.40753 1.65644 7.61835
389 H 11.9859 0.267212 45.6116
398 H 7.57551 4.08734 4.35475
220 O 6.99702 4.73749 3.83868
68 Si 9.34837 12.9614 8.8695
401 H 9.02613 1.92362 44.1456
221 O 8.75969 1.02419 43.8374
646 H 10.7455 5.74872 4.47783
132 O 7.95407 12.2531 9.00425
38 Ca 4.49245 6.73645 3.22965
186 O 3.62343 6.83363 5.54598
113 O 2.61471 6.97269 7.8088
59 Si 3.42477 7.76603 6.71096
39 Ca 2.19234 9.2587 3.6449
61 Si 1.98256 10.4327 6.4204
164 O 2.57646 9.01987 6.22651
175 O 15.288 11.2379 5.15834
114 O 4.73971 8.35827 7.28741
118 O 2.98875 11.2792 7.25847
26 Ca 5.37358 10.6044 7.59198
224 O 4.5437 9.25933 3.73559
146 O 14.2404 10.3402 7.25274
222 O 13.6416 7.95067 4.55641
407 H 4.4993 10.1783 3.16994
402 H 13.8318 6.93823 4.53092
406 H 5.46554 9.47419 4.25228
30 Ca 13.1893 8.07628 7.19441
639 H 0.777281 11.5111 43.4773
45 Ca 6.36776 11.8897 3.48076
353 O 13.3609 12.2201 3.72052
403 H 12.7819 8.2102 4.0132
166 O 10.4873 11.9079 8.66371
647 H 12.457 12.1389 3.18715
31 Ca 12.3297 11.6876 7.29269
352 O 9.78087 6.14388 4.77473
23 Ca 6.83281 7.48545 7.45506
135 O 9.06294 6.89334 7.20839
386 H 11.3425 -2.99415 5.77881
196 O 6.88597 9.94219 4.64166
70 Si 9.71224 7.41588 5.86677
141 O 7.28582 9.60879 7.10831
214 O 11.4167 -1.97428 5.68114
387 H 10.4366 -1.64626 5.53206
73 Si 7.98391 9.84075 5.6964
136 O 11.193 7.83634 6.11327
173 O 8.80629 8.52589 5.39771
142 O 8.90496 11.1055 5.54108
44 Ca 8.2884 6.46005 2.74605
408 H 8.7592 11.0128 2.81797
1 Ca 4.53061 3.93759 10.1357
47 Si 1.10466 4.62769 10.8615
79 Si 2.70183 2.98002 12.7421
87 O 2.37875 4.94746 9.956
149 O 2.64613 1.55513 12.0922
150 O 1.46467 3.86383 12.1602
177 O 4.01206 3.68545 12.3612
336 O 2.4937 2.90587 14.3292
86 O 3.87206 1.53855 9.90613
119 O 13.7765 3.72464 10.0161
57 Si 3.04984 12.951 10.9282
630 H 2.25 3.38413 15.2305
110 O 1.68919 12.5794 10.1357
350 O 6.23174 12.9243 12.1452
467 H 4.63939 4.93669 13.4953
445 H 1.28697 13.9811 14.824
469 H 5.68564 3.14309 12.8245
11 Ca 6.12946 13.255 9.87358
444 H 0.684612 12.8971 15.8532
461 H -8.21828 14.7253 14.9493
251 O -8.81684 13.9417 15.0854
460 H -9.78159 14.4072 15.0187
394 H 13.8312 12.8182 13.2971
449 H 6.32631 -8.18973 15.0522
218 O 13.3516 12.5408 12.3975
243 O 0.678428 13.2266 14.8956
245 O 6.3838 -8.07684 16.0882
425 H 13.222 4.0169 13.4719
165 O 13.9683 5.95093 11.0702
448 H 7.1538 -7.39465 16.2776
4 Ca 11.5057 4.34136 9.55595
413 H -2.64312 2.67286 17.0483
227 O -2.1991 1.84453 16.551
644 H 7.06832 12.989 12.6684
255 O 6.47444 3.27146 13.4433
226 O -0.563525 5.20526 16.2443
411 H -0.673174 4.42693 15.6333
94 O 9.00858 4.53339 9.6089
21 Ca 13.3365 13.8894 10.5424
233 O 12.5102 3.25983 13.519
468 H 7.29991 3.4367 12.8856
424 H 12.0966 3.29738 12.4901
93 O 6.78777 3.1318 10.0586
153 O 7.19071 5.33346 11.1407
49 Si 7.93851 4.06197 10.6587
80 Si 9.88867 2.23513 11.4645
154 O 8.69309 3.21766 11.7337
179 O 10.186 1.26938 12.6011
180 O 11.2977 2.99173 11.2156
152 O 9.65539 1.38974 10.17
41 Ca 11.7663 0.996732 14.3274
417 H 7.76995 1.28549 14.4338
229 O 8.43798 0.526159 14.2597
416 H 9.11457 0.874605 13.4997
423 H 10.7365 3.90176 13.6988
232 O 9.98617 4.45749 13.9704
422 H 9.17299 3.95253 13.6211
443 H -4.73131 5.45251 15.9364
453 H 8.33059 0.558525 16.1399
242 O -5.13514 5.95007 16.737
641 H 10.5254 11.8773 11.7427
395 H 13.6669 11.6011 12.2195
123 O 13.8373 8.00563 9.58532
254 O 4.67317 5.89467 13.7933
18 Ca 14.6312 10.2794 9.49933
42 Ca 4.955 11.8217 13.76
437 H 2.16494 11.6893 14.2849
102 O 5.47854 10.6925 9.76243
505 H 4.79934 6.82906 15.1802
466 H 5.37786 6.4598 13.2319
426 H 0.878054 6.05241 13.4346
428 H 3.13074 6.99392 12.9842
100 O 4.95035 6.24936 10.3733
429 H 3.51802 8.51484 12.6009
2 Ca 2.81671 7.21742 10.0609
53 Si 4.33481 10.2924 10.8594
101 O 3.27041 9.43265 10.0845
157 O 3.7552 11.688 11.3161
158 O 4.92971 9.55969 12.0319
213 O 14.2252 10.1217 12.0062
235 O 2.89984 7.78478 12.3618
239 O 2.66631 10.8043 14.1805
384 H 14.4377 10.0889 12.9495
385 H 13.6791 9.22862 11.9569
436 H 2.16019 10.098 14.6731
234 O 0.0708021 6.47263 13.8888
273 O 5.04022 7.51456 15.9187
518 H 14.8768 7.83061 14.7423
182 O 6.34977 9.27016 14.1129
504 H 5.48636 8.3104 15.3556
81 Si 6.27913 9.04103 12.6181
501 H -7.76192 10.2459 15.1849
156 O 6.22399 7.43112 12.2764
280 O 14.8533 8.7345 15.2347
427 H -0.377419 7.14023 13.1217
519 H 13.8622 8.99975 15.2598
126 O 12.3648 10.4012 9.27756
7 Ca 9.43191 7.04609 9.57093
125 O 9.82596 9.48291 9.25044
52 Si 6.36815 6.66587 10.9022
410 H -0.154201 5.8597 15.5867
63 Si 13.0825 7.17884 10.6668
650 Cl 12.2586 10.5511 15.0373
191 O 12.7861 8.00007 11.9413
392 H 8.94813 11.2835 13.9899
272 O -3.15181 7.10609 14.2739
502 H -2.12552 7.11463 14.4554
503 H -3.51114 6.21764 13.8764
217 O 9.16044 10.3387 13.6491
124 O 11.7769 6.53897 9.96864
366 H 9.57776 7.5715 12.6153
99 O 7.1653 7.42145 9.7679
204 O 9.47904 7.97353 11.7026
40 Ca 11.2102 9.65153 12.8504
367 H 8.68786 8.64352 11.7565
8 Ca 7.6355 9.9986 9.5442
64 Si 10.867 10.6533 9.57846
183 O 7.49253 9.61195 11.8403
347 O 10.7094 11.0579 11.108
393 H 8.4906 10.1976 12.8767
439 H 7.41622 8.84577 15.2857
240 O 8.11042 8.46354 15.936
442 H -5.40522 6.87272 16.3252
438 H 8.87774 8.60626 15.3599
236 O 3.43478 3.58105 17.0278
431 H 4.31486 3.9081 16.6347
430 H 3.06803 4.40208 17.4985
441 H 15.6802 2.20086 18.1956
260 O 2.41946 18.0145 21.4356
479 H 2.36032 17.6639 20.5128
558 H 13.7948 14.7294 21.9326
552 H -10.0443 1.65475 22.033
477 H 19.7456 4.08362 21.2498
241 O 15.4166 1.46276 18.8641
440 H 15.0234 0.701178 18.3288
249 O 2.08742 5.60422 18.7213
484 H 1.00115 -12.1682 21.021
263 O 0.383639 -12.9714 20.9115
485 H 0.690591 -13.4048 20.0293
559 H 15.0536 14.1602 22.7495
490 H 14.0744 -9.98925 19.5762
274 O 17.4498 1.00321 20.6174
507 H 18.2057 1.16027 19.9692
605 H 14.5357 -6.88607 22.3068
310 O 4.86669 4.38351 22.4892
579 H 3.99096 4.84637 22.1211
553 H -9.86828 2.92723 22.881
297 O -10.5233 2.18208 22.7517
259 O 20.5099 3.75935 20.6319
476 H 20.1775 3.25897 19.7947
541 H 4.94324 14.9968 17.9439
291 O 5.57154 14.4868 18.5929
540 H 6.12837 14.0111 17.9205
604 H 12.9464 -7.49575 22.6347
323 O 13.6032 -6.67851 22.7205
252 O 0.592857 -0.370793 17.2757
412 H -1.84558 1.0899 17.1994
266 O 13.3067 -9.50287 20.0734
491 H 12.8611 -8.85116 19.3843
434 H -4.77938 3.34214 18.923
238 O -4.58261 4.37217 18.8386
435 H -5.01647 4.64413 17.9516
556 H 10.8283 3.72847 22.4849
557 H 11.9273 3.61665 21.192
299 O 11.6089 4.17363 21.967
486 H 8.51007 -11.6439 19.686
264 O 8.81662 -10.7771 19.2205
487 H 8.37618 -10.8633 18.257
494 H -7.7207 -10.8078 21.7621
415 H 10.7561 4.28731 18.5023
414 H 11.9307 4.61336 17.5423
228 O 11.7678 4.04117 18.3849
652 Cl 9.0648 3.51325 23.5903
654 Na 8.81849 4.94024 21.3731
247 O 7.60732 0.792252 16.8296
498 H 10.3286 1.24928 20.1281
499 H 11.7984 1.9013 20.5026
270 O 11.2091 1.13251 20.6856
268 O -7.1762 -10.5588 22.5969
495 H -6.90027 -9.56027 22.5018
457 H 1.09332 5.53002 18.6358
271 O -7.95181 10.8745 16.0474
464 H 5.43741 -5.12862 18.1596
456 H 2.36907 6.57118 18.3903
465 H 6.43836 -5.90377 19.1942
478 H 2.70638 18.9482 21.3612
506 H 16.518 1.2832 20.1378
462 H 0.0558691 -0.891432 16.6132
463 H 0.783994 -1.08224 18.0349
306 O 17.3834 -4.37512 20.784
570 H 18.1259 -4.60513 20.1295
571 H 17.7807 -3.6232 21.28
483 H 2.14626 9.65772 18.9021
262 O 1.16285 9.93524 18.8943
253 O 5.94263 -5.08236 19.0389
482 H 0.627083 9.07414 18.8451
516 H 6.66518 6.69505 22.7664
517 H 8.03322 7.46106 22.1833
492 H 3.76167 -4.37928 16.967
493 H 2.27992 -3.81854 16.6639
267 O 2.82952 -4.27153 17.3892
500 H -8.15155 10.2379 16.7535
496 H 13.1803 6.87903 21.5492
279 O 7.56887 6.54312 22.3329
269 O 12.7395 7.74157 21.352
382 H 13.5589 10.717 22.1899
497 H 13.1036 8.10068 20.4946
383 H 12.6874 9.32012 22.4505
212 O 13.1314 10.1249 22.9375
454 H -1.31758 -2.9111 17.7856
248 O -2.09425 -2.22754 17.8439
455 H -2.27117 -1.93859 16.8935
452 H 6.93136 0.0524156 16.6336
450 H 10.126 -3.98236 18.0987
474 H 6.59448 8.68881 18.7053
419 H 11.1291 -0.686616 20.6899
230 O 10.6371 -1.55202 20.3981
538 H -2.3478 -5.56 21.266
290 O -3.32959 -5.59634 20.9109
480 H -3.93122 9.64099 21.363
481 H -3.98741 8.13561 21.438
261 O -4.526 8.89537 21.8225
418 H 10.9984 -1.82385 19.4489
258 O 6.95629 9.57674 18.3335
475 H 7.24414 9.30449 17.3662
535 H 13.3206 7.5284 17.2205
534 H 12.1507 7.14744 18.2808
288 O 13.0433 7.64065 18.1668
246 O 10.4278 -4.96462 18.2726
257 O -5.66557 11.5169 20.1486
472 H -6.08663 10.8421 19.4756
451 H 9.66553 -5.46681 17.8195
473 H -4.74347 11.0882 20.3052
539 H -3.14648 -5.32268 19.9131
567 H 7.36814 -0.911324 21.8176